
     Program PWSCF v.6.3MaX starts on 24Jul2018 at 12:12:28 

     This program is part of the open-source Quantum ESPRESSO suite
     for quantum simulation of materials; please cite
         "P. Giannozzi et al., J. Phys.:Condens. Matter 21 395502 (2009);
         "P. Giannozzi et al., J. Phys.:Condens. Matter 29 465901 (2017);
          URL http://www.quantum-espresso.org", 
     in publications or presentations arising from this work. More details at
     http://www.quantum-espresso.org/quote

     Serial version
     Waiting for input...
     Reading input from standard input

     Current dimensions of program PWSCF are:
     Max number of different atomic species (ntypx) = 10
     Max number of k-points (npk) =  40000
     Max angular momentum in pseudopotentials (lmaxx) =  3
               file Mg.pbe-mt_fhi.UPF: wavefunction(s)  3p 4f renormalized
               file Ge.pbe-mt_fhi.UPF: wavefunction(s)  4d 4f renormalized
               file Si.pbe-mt_fhi.UPF: wavefunction(s)  4f renormalized
 
     G-vector sticks info
     --------------------
     sticks:   dense  smooth     PW     G-vecs:    dense   smooth      PW
     Sum        1861    1861    517                85193    85193   12809
 

     Title: 
     Mg2SiGe                                                                    


     bravais-lattice index     =            0
     lattice parameter (alat)  =       8.5386  a.u.
     unit-cell volume          =     880.3780 (a.u.)^3
     number of atoms/cell      =            6
     number of atomic types    =            3
     number of electrons       =        16.00
     number of Kohn-Sham states=            8
     kinetic-energy cutoff     =      80.0000  Ry
     charge density cutoff     =     320.0000  Ry
     convergence threshold     =      1.0E-06
     mixing beta               =       0.7000
     number of iterations used =            8  plain     mixing
     Exchange-correlation      = PBE ( 1  4  3  4 0 0)
     nstep                     =           50


     celldm(1)=   8.538562  celldm(2)=   0.000000  celldm(3)=   0.000000
     celldm(4)=   0.000000  celldm(5)=   0.000000  celldm(6)=   0.000000

     crystal axes: (cart. coord. in units of alat)
               a(1) = (   1.000000   0.000000   0.000000 )  
               a(2) = (   0.000000   1.000000   0.000000 )  
               a(3) = (   0.000000   0.000000   1.414214 )  

     reciprocal axes: (cart. coord. in units 2 pi/alat)
               b(1) = (  1.000000  0.000000  0.000000 )  
               b(2) = (  0.000000  1.000000  0.000000 )  
               b(3) = (  0.000000  0.000000  0.707107 )  


     PseudoPot. # 1 for Mg read from file:
     /home/rajeshprashanth/pseudo/Mg.pbe-mt_fhi.UPF
     MD5 check sum: 5f317abbf1af53c7f9f9394406f46722
     Pseudo is Norm-conserving + core correction, Zval =  2.0
     Generated using FHI98PP, converted with fhi2upf.x v.5.0.2
     Using radial grid of  489 points,  3 beta functions with: 
                l(1) =   0
                l(2) =   1
                l(3) =   3

     PseudoPot. # 2 for Ge read from file:
     /home/rajeshprashanth/pseudo/Ge.pbe-mt_fhi.UPF
     MD5 check sum: 5e8e3ecae5c0f32a4ca4c4ea0c54247f
     Pseudo is Norm-conserving, Zval =  4.0
     Generated using FHI98PP, converted with fhi2upf.x v.5.0.2
     Using radial grid of  529 points,  3 beta functions with: 
                l(1) =   1
                l(2) =   2
                l(3) =   3

     PseudoPot. # 3 for Si read from file:
     /home/rajeshprashanth/pseudo/Si.pbe-mt_fhi.UPF
     MD5 check sum: c599308877b8fc1bd27895572194cdaa
     Pseudo is Norm-conserving, Zval =  4.0
     Generated using FHI98PP, converted with fhi2upf.x v.5.0.2
     Using radial grid of  495 points,  3 beta functions with: 
                l(1) =   0
                l(2) =   1
                l(3) =   3

     atomic species   valence    mass     pseudopotential
        Mg             2.00    24.30500     Mg( 1.00)
        Ge             4.00    72.59000     Ge( 1.00)
        Si             4.00    28.08500     Si( 1.00)

     16 Sym. Ops., with inversion, found


                                    s                        frac. trans.

      isym =  1     identity                                     

 cryst.   s( 1) = (     1          0          0      )
                  (     0          1          0      )
                  (     0          0          1      )

 cart.    s( 1) = (  1.0000000  0.0000000  0.0000000 )
                  (  0.0000000  1.0000000  0.0000000 )
                  (  0.0000000  0.0000000  1.0000000 )


      isym =  2     180 deg rotation - cart. axis [0,0,1]        

 cryst.   s( 2) = (    -1          0          0      )
                  (     0         -1          0      )
                  (     0          0          1      )

 cart.    s( 2) = ( -1.0000000  0.0000000  0.0000000 )
                  (  0.0000000 -1.0000000  0.0000000 )
                  (  0.0000000  0.0000000  1.0000000 )


      isym =  3     180 deg rotation - cart. axis [0,1,0]        

 cryst.   s( 3) = (    -1          0          0      )
                  (     0          1          0      )
                  (     0          0         -1      )

 cart.    s( 3) = ( -1.0000000  0.0000000  0.0000000 )
                  (  0.0000000  1.0000000  0.0000000 )
                  (  0.0000000  0.0000000 -1.0000000 )


      isym =  4     180 deg rotation - cart. axis [1,0,0]        

 cryst.   s( 4) = (     1          0          0      )
                  (     0         -1          0      )
                  (     0          0         -1      )

 cart.    s( 4) = (  1.0000000  0.0000000  0.0000000 )
                  (  0.0000000 -1.0000000  0.0000000 )
                  (  0.0000000  0.0000000 -1.0000000 )


      isym =  5     180 deg rotation - cart. axis [1,1,0]        

 cryst.   s( 5) = (     0          1          0      )
                  (     1          0          0      )
                  (     0          0         -1      )

 cart.    s( 5) = (  0.0000000  1.0000000  0.0000000 )
                  (  1.0000000  0.0000000  0.0000000 )
                  (  0.0000000  0.0000000 -1.0000000 )


      isym =  6     180 deg rotation - cart. axis [1,-1,0]       

 cryst.   s( 6) = (     0         -1          0      )
                  (    -1          0          0      )
                  (     0          0         -1      )

 cart.    s( 6) = (  0.0000000 -1.0000000  0.0000000 )
                  ( -1.0000000  0.0000000  0.0000000 )
                  (  0.0000000  0.0000000 -1.0000000 )


      isym =  7      90 deg rotation - cart. axis [0,0,-1]       

 cryst.   s( 7) = (     0         -1          0      )
                  (     1          0          0      )
                  (     0          0          1      )

 cart.    s( 7) = (  0.0000000  1.0000000  0.0000000 )
                  ( -1.0000000  0.0000000  0.0000000 )
                  (  0.0000000  0.0000000  1.0000000 )


      isym =  8      90 deg rotation - cart. axis [0,0,1]        

 cryst.   s( 8) = (     0          1          0      )
                  (    -1          0          0      )
                  (     0          0          1      )

 cart.    s( 8) = (  0.0000000 -1.0000000  0.0000000 )
                  (  1.0000000  0.0000000  0.0000000 )
                  (  0.0000000  0.0000000  1.0000000 )


      isym =  9     inversion                                    

 cryst.   s( 9) = (    -1          0          0      )
                  (     0         -1          0      )
                  (     0          0         -1      )

 cart.    s( 9) = ( -1.0000000  0.0000000  0.0000000 )
                  (  0.0000000 -1.0000000  0.0000000 )
                  (  0.0000000  0.0000000 -1.0000000 )


      isym = 10     inv. 180 deg rotation - cart. axis [0,0,1]   

 cryst.   s(10) = (     1          0          0      )
                  (     0          1          0      )
                  (     0          0         -1      )

 cart.    s(10) = (  1.0000000  0.0000000  0.0000000 )
                  (  0.0000000  1.0000000  0.0000000 )
                  (  0.0000000  0.0000000 -1.0000000 )


      isym = 11     inv. 180 deg rotation - cart. axis [0,1,0]   

 cryst.   s(11) = (     1          0          0      )
                  (     0         -1          0      )
                  (     0          0          1      )

 cart.    s(11) = (  1.0000000  0.0000000  0.0000000 )
                  (  0.0000000 -1.0000000  0.0000000 )
                  (  0.0000000  0.0000000  1.0000000 )


      isym = 12     inv. 180 deg rotation - cart. axis [1,0,0]   

 cryst.   s(12) = (    -1          0          0      )
                  (     0          1          0      )
                  (     0          0          1      )

 cart.    s(12) = ( -1.0000000  0.0000000  0.0000000 )
                  (  0.0000000  1.0000000  0.0000000 )
                  (  0.0000000  0.0000000  1.0000000 )


      isym = 13     inv. 180 deg rotation - cart. axis [1,1,0]   

 cryst.   s(13) = (     0         -1          0      )
                  (    -1          0          0      )
                  (     0          0          1      )

 cart.    s(13) = (  0.0000000 -1.0000000  0.0000000 )
                  ( -1.0000000  0.0000000  0.0000000 )
                  (  0.0000000  0.0000000  1.0000000 )


      isym = 14     inv. 180 deg rotation - cart. axis [1,-1,0]  

 cryst.   s(14) = (     0          1          0      )
                  (     1          0          0      )
                  (     0          0          1      )

 cart.    s(14) = (  0.0000000  1.0000000  0.0000000 )
                  (  1.0000000  0.0000000  0.0000000 )
                  (  0.0000000  0.0000000  1.0000000 )


      isym = 15     inv.  90 deg rotation - cart. axis [0,0,-1]  

 cryst.   s(15) = (     0          1          0      )
                  (    -1          0          0      )
                  (     0          0         -1      )

 cart.    s(15) = (  0.0000000 -1.0000000  0.0000000 )
                  (  1.0000000  0.0000000  0.0000000 )
                  (  0.0000000  0.0000000 -1.0000000 )


      isym = 16     inv.  90 deg rotation - cart. axis [0,0,1]   

 cryst.   s(16) = (     0         -1          0      )
                  (     1          0          0      )
                  (     0          0         -1      )

 cart.    s(16) = (  0.0000000  1.0000000  0.0000000 )
                  ( -1.0000000  0.0000000  0.0000000 )
                  (  0.0000000  0.0000000 -1.0000000 )


   Cartesian axes

     site n.     atom                  positions (alat units)
         1           Si  tau(   1) = (   0.5000000   0.5000000   0.7071068  )
         2           Ge  tau(   2) = (   0.0000000   0.0000000   0.0000000  )
         3           Mg  tau(   3) = (   0.5000000   0.0000000   0.3535534  )
         4           Mg  tau(   4) = (   0.0000000   0.5000000   0.3535534  )
         5           Mg  tau(   5) = (   0.0000000   0.5000000   1.0606602  )
         6           Mg  tau(   6) = (   0.5000000   0.0000000   1.0606602  )

   Crystallographic axes

     site n.     atom                  positions (cryst. coord.)
         1           Si  tau(   1) = (  0.5000000  0.5000000  0.5000000  )
         2           Ge  tau(   2) = (  0.0000000  0.0000000  0.0000000  )
         3           Mg  tau(   3) = (  0.5000000  0.0000000  0.2500000  )
         4           Mg  tau(   4) = (  0.0000000  0.5000000  0.2500000  )
         5           Mg  tau(   5) = (  0.0000000  0.5000000  0.7500000  )
         6           Mg  tau(   6) = (  0.5000000  0.0000000  0.7500000  )

     number of k points=    45
                       cart. coord. in units 2pi/alat
        k(    1) = (   0.0000000   0.0000000   0.0000000), wk =   0.0078125
        k(    2) = (   0.0000000   0.0000000   0.1767767), wk =   0.0156250
        k(    3) = (   0.0000000   0.0000000  -0.3535534), wk =   0.0078125
        k(    4) = (   0.0000000   0.1250000   0.0000000), wk =   0.0312500
        k(    5) = (   0.0000000   0.1250000   0.1767767), wk =   0.0625000
        k(    6) = (   0.0000000   0.1250000  -0.3535534), wk =   0.0312500
        k(    7) = (   0.0000000   0.2500000   0.0000000), wk =   0.0312500
        k(    8) = (   0.0000000   0.2500000   0.1767767), wk =   0.0625000
        k(    9) = (   0.0000000   0.2500000  -0.3535534), wk =   0.0312500
        k(   10) = (   0.0000000   0.3750000   0.0000000), wk =   0.0312500
        k(   11) = (   0.0000000   0.3750000   0.1767767), wk =   0.0625000
        k(   12) = (   0.0000000   0.3750000  -0.3535534), wk =   0.0312500
        k(   13) = (   0.0000000  -0.5000000   0.0000000), wk =   0.0156250
        k(   14) = (   0.0000000  -0.5000000   0.1767767), wk =   0.0312500
        k(   15) = (   0.0000000  -0.5000000  -0.3535534), wk =   0.0156250
        k(   16) = (   0.1250000   0.1250000   0.0000000), wk =   0.0312500
        k(   17) = (   0.1250000   0.1250000   0.1767767), wk =   0.0625000
        k(   18) = (   0.1250000   0.1250000  -0.3535534), wk =   0.0312500
        k(   19) = (   0.1250000   0.2500000   0.0000000), wk =   0.0625000
        k(   20) = (   0.1250000   0.2500000   0.1767767), wk =   0.1250000
        k(   21) = (   0.1250000   0.2500000  -0.3535534), wk =   0.0625000
        k(   22) = (   0.1250000   0.3750000   0.0000000), wk =   0.0625000
        k(   23) = (   0.1250000   0.3750000   0.1767767), wk =   0.1250000
        k(   24) = (   0.1250000   0.3750000  -0.3535534), wk =   0.0625000
        k(   25) = (   0.1250000  -0.5000000   0.0000000), wk =   0.0312500
        k(   26) = (   0.1250000  -0.5000000   0.1767767), wk =   0.0625000
        k(   27) = (   0.1250000  -0.5000000  -0.3535534), wk =   0.0312500
        k(   28) = (   0.2500000   0.2500000   0.0000000), wk =   0.0312500
        k(   29) = (   0.2500000   0.2500000   0.1767767), wk =   0.0625000
        k(   30) = (   0.2500000   0.2500000  -0.3535534), wk =   0.0312500
        k(   31) = (   0.2500000   0.3750000   0.0000000), wk =   0.0625000
        k(   32) = (   0.2500000   0.3750000   0.1767767), wk =   0.1250000
        k(   33) = (   0.2500000   0.3750000  -0.3535534), wk =   0.0625000
        k(   34) = (   0.2500000  -0.5000000   0.0000000), wk =   0.0312500
        k(   35) = (   0.2500000  -0.5000000   0.1767767), wk =   0.0625000
        k(   36) = (   0.2500000  -0.5000000  -0.3535534), wk =   0.0312500
        k(   37) = (   0.3750000   0.3750000   0.0000000), wk =   0.0312500
        k(   38) = (   0.3750000   0.3750000   0.1767767), wk =   0.0625000
        k(   39) = (   0.3750000   0.3750000  -0.3535534), wk =   0.0312500
        k(   40) = (   0.3750000  -0.5000000   0.0000000), wk =   0.0312500
        k(   41) = (   0.3750000  -0.5000000   0.1767767), wk =   0.0625000
        k(   42) = (   0.3750000  -0.5000000  -0.3535534), wk =   0.0312500
        k(   43) = (  -0.5000000  -0.5000000   0.0000000), wk =   0.0078125
        k(   44) = (  -0.5000000  -0.5000000   0.1767767), wk =   0.0156250
        k(   45) = (  -0.5000000  -0.5000000  -0.3535534), wk =   0.0078125

                       cryst. coord.
        k(    1) = (   0.0000000   0.0000000   0.0000000), wk =   0.0078125
        k(    2) = (   0.0000000   0.0000000   0.2500000), wk =   0.0156250
        k(    3) = (   0.0000000   0.0000000  -0.5000000), wk =   0.0078125
        k(    4) = (   0.0000000   0.1250000   0.0000000), wk =   0.0312500
        k(    5) = (   0.0000000   0.1250000   0.2500000), wk =   0.0625000
        k(    6) = (   0.0000000   0.1250000  -0.5000000), wk =   0.0312500
        k(    7) = (   0.0000000   0.2500000   0.0000000), wk =   0.0312500
        k(    8) = (   0.0000000   0.2500000   0.2500000), wk =   0.0625000
        k(    9) = (   0.0000000   0.2500000  -0.5000000), wk =   0.0312500
        k(   10) = (   0.0000000   0.3750000   0.0000000), wk =   0.0312500
        k(   11) = (   0.0000000   0.3750000   0.2500000), wk =   0.0625000
        k(   12) = (   0.0000000   0.3750000  -0.5000000), wk =   0.0312500
        k(   13) = (   0.0000000  -0.5000000   0.0000000), wk =   0.0156250
        k(   14) = (   0.0000000  -0.5000000   0.2500000), wk =   0.0312500
        k(   15) = (   0.0000000  -0.5000000  -0.5000000), wk =   0.0156250
        k(   16) = (   0.1250000   0.1250000   0.0000000), wk =   0.0312500
        k(   17) = (   0.1250000   0.1250000   0.2500000), wk =   0.0625000
        k(   18) = (   0.1250000   0.1250000  -0.5000000), wk =   0.0312500
        k(   19) = (   0.1250000   0.2500000   0.0000000), wk =   0.0625000
        k(   20) = (   0.1250000   0.2500000   0.2500000), wk =   0.1250000
        k(   21) = (   0.1250000   0.2500000  -0.5000000), wk =   0.0625000
        k(   22) = (   0.1250000   0.3750000   0.0000000), wk =   0.0625000
        k(   23) = (   0.1250000   0.3750000   0.2500000), wk =   0.1250000
        k(   24) = (   0.1250000   0.3750000  -0.5000000), wk =   0.0625000
        k(   25) = (   0.1250000  -0.5000000   0.0000000), wk =   0.0312500
        k(   26) = (   0.1250000  -0.5000000   0.2500000), wk =   0.0625000
        k(   27) = (   0.1250000  -0.5000000  -0.5000000), wk =   0.0312500
        k(   28) = (   0.2500000   0.2500000   0.0000000), wk =   0.0312500
        k(   29) = (   0.2500000   0.2500000   0.2500000), wk =   0.0625000
        k(   30) = (   0.2500000   0.2500000  -0.5000000), wk =   0.0312500
        k(   31) = (   0.2500000   0.3750000   0.0000000), wk =   0.0625000
        k(   32) = (   0.2500000   0.3750000   0.2500000), wk =   0.1250000
        k(   33) = (   0.2500000   0.3750000  -0.5000000), wk =   0.0625000
        k(   34) = (   0.2500000  -0.5000000   0.0000000), wk =   0.0312500
        k(   35) = (   0.2500000  -0.5000000   0.2500000), wk =   0.0625000
        k(   36) = (   0.2500000  -0.5000000  -0.5000000), wk =   0.0312500
        k(   37) = (   0.3750000   0.3750000   0.0000000), wk =   0.0312500
        k(   38) = (   0.3750000   0.3750000   0.2500000), wk =   0.0625000
        k(   39) = (   0.3750000   0.3750000  -0.5000000), wk =   0.0312500
        k(   40) = (   0.3750000  -0.5000000   0.0000000), wk =   0.0312500
        k(   41) = (   0.3750000  -0.5000000   0.2500000), wk =   0.0625000
        k(   42) = (   0.3750000  -0.5000000  -0.5000000), wk =   0.0312500
        k(   43) = (  -0.5000000  -0.5000000   0.0000000), wk =   0.0078125
        k(   44) = (  -0.5000000  -0.5000000   0.2500000), wk =   0.0156250
        k(   45) = (  -0.5000000  -0.5000000  -0.5000000), wk =   0.0078125

     Dense  grid:    85193 G-vectors     FFT dimensions: (  50,  50,  72)

     Dynamical RAM for                 wfc:       1.30 MB

     Dynamical RAM for     wfc (w. buffer):      59.73 MB

     Dynamical RAM for           str. fact:       3.90 MB

     Dynamical RAM for           local pot:       0.00 MB

     Dynamical RAM for          nlocal pot:      11.36 MB

     Dynamical RAM for                qrad:       4.68 MB

     Dynamical RAM for          rho,v,vnew:       8.02 MB

     Dynamical RAM for               rhoin:       2.67 MB

     Dynamical RAM for            rho*nmix:      20.80 MB

     Dynamical RAM for           G-vectors:       5.52 MB

     Dynamical RAM for          h,s,v(r/c):       0.00 MB

     Dynamical RAM for          <psi|beta>:       0.01 MB

     Dynamical RAM for      wfcinit/wfcrot:      31.38 MB

     Estimated static dynamical RAM per process >     128.76 MB

     Estimated max dynamical RAM per process >     160.14 MB

     Initial potential from superposition of free atoms

     starting charge   15.99498, renormalised to   16.00000
     Starting wfcs are   96 randomized atomic wfcs

     total cpu time spent up to now is       18.5 secs

     Self-consistent Calculation

     iteration #  1     ecut=    80.00 Ry     beta= 0.70
     CG style diagonalization
     ethr =  1.00E-02,  avg # of iterations =  2.7

     total cpu time spent up to now is       24.9 secs

     total energy              =     -27.24517461 Ry
     Harris-Foulkes estimate   =     -27.40463678 Ry
     estimated scf accuracy    <       0.27853262 Ry

     iteration #  2     ecut=    80.00 Ry     beta= 0.70
     CG style diagonalization
     ethr =  1.74E-03,  avg # of iterations =  4.0

     total cpu time spent up to now is       33.0 secs

     total energy              =     -27.32060776 Ry
     Harris-Foulkes estimate   =     -27.34879339 Ry
     estimated scf accuracy    <       0.05675588 Ry

     iteration #  3     ecut=    80.00 Ry     beta= 0.70
     CG style diagonalization
     ethr =  3.55E-04,  avg # of iterations =  3.9

     total cpu time spent up to now is       40.9 secs

     total energy              =     -27.33228533 Ry
     Harris-Foulkes estimate   =     -27.33261230 Ry
     estimated scf accuracy    <       0.00121007 Ry

     iteration #  4     ecut=    80.00 Ry     beta= 0.70
     CG style diagonalization
     ethr =  7.56E-06,  avg # of iterations =  4.4

     total cpu time spent up to now is       49.9 secs

     total energy              =     -27.33280772 Ry
     Harris-Foulkes estimate   =     -27.33289392 Ry
     estimated scf accuracy    <       0.00020012 Ry

     iteration #  5     ecut=    80.00 Ry     beta= 0.70
     CG style diagonalization
     ethr =  1.25E-06,  avg # of iterations =  4.1

     total cpu time spent up to now is       58.5 secs

     total energy              =     -27.33285971 Ry
     Harris-Foulkes estimate   =     -27.33287065 Ry
     estimated scf accuracy    <       0.00003950 Ry

     iteration #  6     ecut=    80.00 Ry     beta= 0.70
     CG style diagonalization
     ethr =  2.47E-07,  avg # of iterations =  3.2

     total cpu time spent up to now is       65.1 secs

     total energy              =     -27.33285441 Ry
     Harris-Foulkes estimate   =     -27.33286323 Ry
     estimated scf accuracy    <       0.00001422 Ry

     iteration #  7     ecut=    80.00 Ry     beta= 0.70
     CG style diagonalization
     ethr =  8.89E-08,  avg # of iterations =  4.3

     total cpu time spent up to now is       73.9 secs

     total energy              =     -27.33286057 Ry
     Harris-Foulkes estimate   =     -27.33286268 Ry
     estimated scf accuracy    <       0.00000568 Ry

     iteration #  8     ecut=    80.00 Ry     beta= 0.70
     CG style diagonalization
     ethr =  3.55E-08,  avg # of iterations =  3.5

     total cpu time spent up to now is       80.9 secs

     End of self-consistent calculation

          k = 0.0000 0.0000 0.0000 ( 10555 PWs)   bands (ev):

    -5.0565  -3.1148  -0.0560   2.4388   2.4388   4.4063   4.4070   4.4070

     occupation numbers 
     1.0000   1.0000   1.0000   1.0000   1.0000   1.0000   1.0000   1.0000

          k = 0.0000 0.0000 0.1768 ( 10610 PWs)   bands (ev):

    -4.9001  -3.5188   0.5629   2.6193   2.6193   3.2805   3.9016   3.9016

     occupation numbers 
     1.0000   1.0000   1.0000   1.0000   1.0000   1.0000   1.0000   1.0000

          k = 0.0000 0.0000-0.3536 ( 10642 PWs)   bands (ev):

    -4.6307  -3.9849   1.7257   1.9436   3.1287   3.1287   3.1537   3.1537

     occupation numbers 
     1.0000   1.0000   1.0000   1.0000   1.0000   1.0000   1.0000   1.0000

          k = 0.0000 0.1250 0.0000 ( 10609 PWs)   bands (ev):

    -4.9705  -3.1040   0.0511   1.7937   2.5217   3.5432   4.0890   4.3882

     occupation numbers 
     1.0000   1.0000   1.0000   1.0000   1.0000   1.0000   1.0000   1.0000

          k = 0.0000 0.1250 0.1768 ( 10614 PWs)   bands (ev):

    -4.8189  -3.4733   0.5328   2.1224   2.5826   2.6984   3.9294   4.0757

     occupation numbers 
     1.0000   1.0000   1.0000   1.0000   1.0000   1.0000   1.0000   1.0000

          k = 0.0000 0.1250-0.3536 ( 10644 PWs)   bands (ev):

    -4.5630  -3.9077   1.3923   1.5636   3.0236   3.0352   3.1912   3.2205

     occupation numbers 
     1.0000   1.0000   1.0000   1.0000   1.0000   1.0000   1.0000   1.0000

          k = 0.0000 0.2500 0.0000 ( 10632 PWs)   bands (ev):

    -4.7250  -3.1188   0.3694   0.9481   2.3681   2.7634   3.3254   4.2853

     occupation numbers 
     1.0000   1.0000   1.0000   1.0000   1.0000   1.0000   1.0000   1.0000

          k = 0.0000 0.2500 0.1768 ( 10626 PWs)   bands (ev):

    -4.5911  -3.3739   0.2604   1.5208   1.7856   2.9259   3.9694   3.9702

     occupation numbers 
     1.0000   1.0000   1.0000   1.0000   1.0000   1.0000   1.0000   1.0000

          k = 0.0000 0.2500-0.3536 ( 10664 PWs)   bands (ev):

    -4.3817  -3.6961   0.6051   0.7094   3.1242   3.1785   3.3588   3.4005

     occupation numbers 
     1.0000   1.0000   1.0000   1.0000   1.0000   1.0000   1.0000   1.0000

          k = 0.0000 0.3750 0.0000 ( 10640 PWs)   bands (ev):

    -4.3749  -3.2600   0.5515   0.8888   1.3904   2.4297   3.1384   4.0143

     occupation numbers 
     1.0000   1.0000   1.0000   1.0000   1.0000   1.0000   1.0000   1.0000

          k = 0.0000 0.3750 0.1768 ( 10654 PWs)   bands (ev):

    -4.2833  -3.3281  -0.0832   0.6055   2.0714   3.2662   3.3929   3.9034

     occupation numbers 
     1.0000   1.0000   1.0000   1.0000   1.0000   1.0000   1.0000   1.0000

          k = 0.0000 0.3750-0.3536 ( 10632 PWs)   bands (ev):

    -4.1653  -3.4303  -0.1015  -0.0523   3.4510   3.5028   3.5598   3.6181

     occupation numbers 
     1.0000   1.0000   1.0000   1.0000   1.0000   1.0000   1.0000   1.0000

          k = 0.0000-0.5000 0.0000 ( 10608 PWs)   bands (ev):

    -4.1410  -3.4211   0.6925   0.7795   1.5787   1.5995   3.5658   3.6163

     occupation numbers 
     1.0000   1.0000   1.0000   1.0000   1.0000   1.0000   1.0000   1.0000

          k = 0.0000-0.5000 0.1768 ( 10648 PWs)   bands (ev):

    -4.1020  -3.3606   0.0058   0.0258   2.6470   2.6936   3.6100   3.6683

     occupation numbers 
     1.0000   1.0000   1.0000   1.0000   1.0000   1.0000   1.0000   1.0000

          k = 0.0000-0.5000-0.3536 ( 10684 PWs)   bands (ev):

    -4.0607  -3.2936  -0.3828  -0.3652   3.6575   3.6760   3.7053   3.7248

     occupation numbers 
     1.0000   1.0000   1.0000   1.0000   1.0000   1.0000   1.0000   1.0000

          k = 0.1250 0.1250 0.0000 ( 10615 PWs)   bands (ev):

    -4.8854  -3.0885   0.1576   1.7306   2.0287   3.2789   3.9010   3.9018

     occupation numbers 
     1.0000   1.0000   1.0000   1.0000   1.0000   1.0000   1.0000   1.0000

          k = 0.1250 0.1250 0.1768 ( 10608 PWs)   bands (ev):

    -4.7387  -3.4268   0.5415   1.9256   2.3694   2.4509   3.3259   4.2846

     occupation numbers 
     1.0000   1.0000   1.0000   1.0000   1.0000   1.0000   1.0000   1.0000

          k = 0.1250 0.1250-0.3536 ( 10642 PWs)   bands (ev):

    -4.4959  -3.8312   1.2621   1.4331   2.4819   2.5003   3.4791   3.4861

     occupation numbers 
     1.0000   1.0000   1.0000   1.0000   1.0000   1.0000   1.0000   1.0000

          k = 0.1250 0.2500 0.0000 ( 10634 PWs)   bands (ev):

    -4.6431  -3.0878   0.4736   0.9696   2.1874   2.2927   3.3108   3.7188

     occupation numbers 
     1.0000   1.0000   1.0000   1.0000   1.0000   1.0000   1.0000   1.0000

          k = 0.1250 0.2500 0.1768 ( 10617 PWs)   bands (ev):

    -4.5141  -3.3232   0.3524   1.5224   1.5959   2.6013   3.2144   3.9251

     occupation numbers 
     1.0000   1.0000   1.0000   1.0000   1.0000   1.0000   1.0000   1.0000

          k = 0.1250 0.2500-0.3536 ( 10658 PWs)   bands (ev):

    -4.3165  -3.6215   0.6624   0.7718   2.3623   2.3828   3.6403   3.6494

     occupation numbers 
     1.0000   1.0000   1.0000   1.0000   1.0000   1.0000   1.0000   1.0000

          k = 0.1250 0.3750 0.0000 ( 10639 PWs)   bands (ev):

    -4.3003  -3.2035   0.5558   0.9882   1.3515   2.4909   2.5811   3.4826

     occupation numbers 
     1.0000   1.0000   1.0000   1.0000   1.0000   1.0000   1.0000   1.0000

          k = 0.1250 0.3750 0.1768 ( 10650 PWs)   bands (ev):

    -4.2133  -3.2664   0.0115   0.6586   1.8657   2.9248   3.1517   3.3800

     occupation numbers 
     1.0000   1.0000   1.0000   1.0000   1.0000   1.0000   1.0000   1.0000

          k = 0.1250 0.3750-0.3536 ( 10648 PWs)   bands (ev):

    -4.1030  -3.3590  -0.0094   0.0403   2.6545   2.6862   3.6388   3.6391

     occupation numbers 
     1.0000   1.0000   1.0000   1.0000   1.0000   1.0000   1.0000   1.0000

          k = 0.1250-0.5000 0.0000 ( 10608 PWs)   bands (ev):

    -4.0760  -3.3458   0.6737   0.7625   1.6691   1.6859   3.0409   3.0729

     occupation numbers 
     1.0000   1.0000   1.0000   1.0000   1.0000   1.0000   1.0000   1.0000

          k = 0.1250-0.5000 0.1768 ( 10640 PWs)   bands (ev):

    -4.0391  -3.2881   0.0803   0.1007   2.4351   2.4882   3.2164   3.2590

     occupation numbers 
     1.0000   1.0000   1.0000   1.0000   1.0000   1.0000   1.0000   1.0000

          k = 0.1250-0.5000-0.3536 ( 10636 PWs)   bands (ev):

    -4.0001  -3.2246  -0.2847  -0.2667   2.9217   2.9410   3.4812   3.5044

     occupation numbers 
     1.0000   1.0000   1.0000   1.0000   1.0000   1.0000   1.0000   1.0000

          k = 0.2500 0.2500 0.0000 ( 10681 PWs)   bands (ev):

    -4.4121  -3.0350   0.7820   0.7821   1.7433   1.8379   3.1410   3.1414

     occupation numbers 
     1.0000   1.0000   1.0000   1.0000   1.0000   1.0000   1.0000   1.0000

          k = 0.2500 0.2500 0.1768 ( 10639 PWs)   bands (ev):

    -4.3009  -3.2024   0.5542   0.9883   1.3523   2.4911   2.5814   3.4818

     occupation numbers 
     1.0000   1.0000   1.0000   1.0000   1.0000   1.0000   1.0000   1.0000

          k = 0.2500 0.2500-0.3536 ( 10608 PWs)   bands (ev):

    -4.1429  -3.4182   0.6773   0.7933   1.5858   1.5926   3.5884   3.5932

     occupation numbers 
     1.0000   1.0000   1.0000   1.0000   1.0000   1.0000   1.0000   1.0000

          k = 0.2500 0.3750 0.0000 ( 10654 PWs)   bands (ev):

    -4.0954  -3.0622   0.4399   1.0968   1.2787   1.9958   2.6233   2.8568

     occupation numbers 
     1.0000   1.0000   1.0000   1.0000   1.0000   1.0000   1.0000   1.0000

          k = 0.2500 0.3750 0.1768 ( 10650 PWs)   bands (ev):

    -4.0238  -3.1052   0.2724   0.7338   1.1992   2.2938   2.8033   2.9879

     occupation numbers 
     1.0000   1.0000   1.0000   1.0000   1.0000   1.0000   1.0000   1.0000

          k = 0.2500 0.3750-0.3536 ( 10630 PWs)   bands (ev):

    -3.9380  -3.1660   0.2503   0.3023   1.6249   1.6671   3.2172   3.2245

     occupation numbers 
     1.0000   1.0000   1.0000   1.0000   1.0000   1.0000   1.0000   1.0000

          k = 0.2500-0.5000 0.0000 ( 10608 PWs)   bands (ev):

    -3.9028  -3.1397   0.5069   0.5852   1.9232   1.9278   2.4423   2.4585

     occupation numbers 
     1.0000   1.0000   1.0000   1.0000   1.0000   1.0000   1.0000   1.0000

          k = 0.2500-0.5000 0.1768 ( 10640 PWs)   bands (ev):

    -3.8721  -3.0910   0.2516   0.2738   1.7633   1.8021   2.9138   2.9386

     occupation numbers 
     1.0000   1.0000   1.0000   1.0000   1.0000   1.0000   1.0000   1.0000

          k = 0.2500-0.5000-0.3536 ( 10636 PWs)   bands (ev):

    -3.8400  -3.0385   0.0019   0.0212   1.8380   1.8931   2.9203   2.9310

     occupation numbers 
     1.0000   1.0000   1.0000   1.0000   1.0000   1.0000   1.0000   1.0000

          k = 0.3750 0.3750 0.0000 ( 10647 PWs)   bands (ev):

    -3.8351  -2.9254   0.1576   0.5688   1.7305   2.0291   2.6193   2.6194

     occupation numbers 
     1.0000   1.0000   1.0000   1.0000   1.0000   1.0000   1.0000   1.0000

          k = 0.3750 0.3750 0.1768 ( 10632 PWs)   bands (ev):

    -3.7921  -2.9262   0.3694   0.5459   0.9486   1.9256   2.4501   2.7636

     occupation numbers 
     1.0000   1.0000   1.0000   1.0000   1.0000   1.0000   1.0000   1.0000

          k = 0.3750 0.3750-0.3536 ( 10636 PWs)   bands (ev):

    -3.7454  -2.9305   0.5303   0.5839   0.9748   1.0018   2.5777   2.5842

     occupation numbers 
     1.0000   1.0000   1.0000   1.0000   1.0000   1.0000   1.0000   1.0000

          k = 0.3750-0.5000 0.0000 ( 10672 PWs)   bands (ev):

    -3.6979  -2.8815   0.1409   0.1735   2.2482   2.2624   2.3594   2.3618

     occupation numbers 
     1.0000   1.0000   1.0000   1.0000   1.0000   1.0000   1.0000   1.0000

          k = 0.3750-0.5000 0.1768 ( 10648 PWs)   bands (ev):

    -3.6765  -2.8484   0.2694   0.2862   1.4698   1.4824   2.4844   2.4943

     occupation numbers 
     1.0000   1.0000   1.0000   1.0000   1.0000   1.0000   1.0000   1.0000

          k = 0.3750-0.5000-0.3536 ( 10608 PWs)   bands (ev):

    -3.6546  -2.8138   0.4368   0.4607   1.0552   1.1025   2.1949   2.1955

     occupation numbers 
     1.0000   1.0000   1.0000   1.0000   1.0000   1.0000   1.0000   1.0000

          k =-0.5000-0.5000 0.0000 ( 10692 PWs)   bands (ev):

    -3.5998  -2.7492  -0.0560  -0.0560   2.4253   2.4389   2.4389   2.4526

     occupation numbers 
     1.0000   1.0000   1.0000   1.0000   1.0000   1.0000   1.0000   1.0000

          k =-0.5000-0.5000 0.1768 ( 10652 PWs)   bands (ev):

    -3.5839  -2.7268   0.1575   0.1575   1.7306   1.7306   2.0269   2.0307

     occupation numbers 
     1.0000   1.0000   1.0000   1.0000   1.0000   1.0000   1.0000   1.0000

          k =-0.5000-0.5000-0.3536 ( 10720 PWs)   bands (ev):

    -3.5676  -2.7037   0.7649   0.7649   0.7991   0.7991   1.7369   1.7496

     occupation numbers 
     1.0000   1.0000   1.0000   1.0000   1.0000   1.0000   1.0000   1.0000

     highest occupied level (ev):     4.4070

!    total energy              =     -27.33286050 Ry
     Harris-Foulkes estimate   =     -27.33286120 Ry
     estimated scf accuracy    <       0.00000086 Ry

     The total energy is the sum of the following terms:

     one-electron contribution =       7.30030185 Ry
     hartree contribution      =       2.18938888 Ry
     xc contribution           =     -12.90332669 Ry
     ewald contribution        =     -23.91922454 Ry

     convergence has been achieved in   8 iterations

     Forces acting on atoms (cartesian axes, Ry/au):

     atom    1 type  3   force =     0.00000000    0.00000000    0.00000000
     atom    2 type  2   force =     0.00000000    0.00000000    0.00000000
     atom    3 type  1   force =     0.00000000    0.00000000    0.00390079
     atom    4 type  1   force =     0.00000000    0.00000000    0.00390079
     atom    5 type  1   force =     0.00000000    0.00000000   -0.00390079
     atom    6 type  1   force =     0.00000000    0.00000000   -0.00390079
     The non-local contrib.  to forces
     atom    1 type  3   force =     0.00000000    0.00000000    0.00000000
     atom    2 type  2   force =     0.00000000    0.00000000    0.00000000
     atom    3 type  1   force =     0.00000000    0.00000000    0.00087384
     atom    4 type  1   force =     0.00000000    0.00000000    0.00087384
     atom    5 type  1   force =     0.00000000    0.00000000   -0.00087384
     atom    6 type  1   force =     0.00000000    0.00000000   -0.00087384
     The ionic contribution  to forces
     atom    1 type  3   force =     0.00000000    0.00000000   -0.00000000
     atom    2 type  2   force =     0.00000000    0.00000000    0.00000000
     atom    3 type  1   force =     0.00000000   -0.00000000   -0.00000000
     atom    4 type  1   force =    -0.00000000    0.00000000   -0.00000000
     atom    5 type  1   force =    -0.00000000   -0.00000000    0.00000000
     atom    6 type  1   force =    -0.00000000   -0.00000000    0.00000000
     The local contribution  to forces
     atom    1 type  3   force =     0.00000000    0.00000000   -0.00000000
     atom    2 type  2   force =    -0.00000000    0.00000000    0.00000000
     atom    3 type  1   force =    -0.00000000   -0.00000000    0.00294548
     atom    4 type  1   force =     0.00000000   -0.00000000    0.00294548
     atom    5 type  1   force =    -0.00000000   -0.00000000   -0.00294548
     atom    6 type  1   force =     0.00000000    0.00000000   -0.00294548
     The core correction contribution to forces
     atom    1 type  3   force =     0.00000000    0.00000000    0.00000000
     atom    2 type  2   force =     0.00000000    0.00000000    0.00000000
     atom    3 type  1   force =     0.00000000   -0.00000000   -0.00012600
     atom    4 type  1   force =     0.00000000   -0.00000000   -0.00012600
     atom    5 type  1   force =     0.00000000    0.00000000    0.00012600
     atom    6 type  1   force =     0.00000000   -0.00000000    0.00012600
     The Hubbard contrib.    to forces
     atom    1 type  3   force =     0.00000000    0.00000000    0.00000000
     atom    2 type  2   force =     0.00000000    0.00000000    0.00000000
     atom    3 type  1   force =     0.00000000    0.00000000    0.00000000
     atom    4 type  1   force =     0.00000000    0.00000000    0.00000000
     atom    5 type  1   force =     0.00000000    0.00000000    0.00000000
     atom    6 type  1   force =     0.00000000    0.00000000    0.00000000
     The SCF correction term to forces
     atom    1 type  3   force =     0.00000000    0.00000000   -0.00000000
     atom    2 type  2   force =     0.00000000    0.00000000    0.00000000
     atom    3 type  1   force =     0.00000000   -0.00000000    0.00020748
     atom    4 type  1   force =    -0.00000000    0.00000000    0.00020748
     atom    5 type  1   force =    -0.00000000    0.00000000   -0.00020748
     atom    6 type  1   force =     0.00000000    0.00000000   -0.00020748

     Total force =     0.007802     Total SCF correction =     0.000415


     Computing stress (Cartesian axis) and pressure

          total   stress  (Ry/bohr**3)                   (kbar)     P=   -1.40
  -0.00000891   0.00000000   0.00000000         -1.31      0.00      0.00
   0.00000000  -0.00000891   0.00000000          0.00     -1.31      0.00
   0.00000000   0.00000000  -0.00001082          0.00      0.00     -1.59

     kinetic stress (kbar)    984.73      0.00      0.00
                                0.00    984.73      0.00
                                0.00      0.00    984.13

     local   stress (kbar)    -75.99     -0.00     -0.00
                               -0.00    -75.99      0.00
                               -0.00      0.00    -75.37

     nonloc. stress (kbar)    775.87      0.00      0.00
                                0.00    775.87      0.00
                                0.00      0.00    775.50

     hartree stress (kbar)    121.93     -0.00      0.00
                               -0.00    121.93      0.00
                                0.00      0.00    121.96

     exc-cor stress (kbar)    295.43      0.00      0.00
                                0.00    295.43     -0.00
                                0.00     -0.00    295.43

     corecor stress (kbar)   -771.04     -0.00      0.00
                               -0.00   -771.04      0.00
                                0.00      0.00   -771.00

     ewald   stress (kbar)  -1332.25      0.00      0.00
                                0.00  -1332.25      0.00
                                0.00      0.00  -1332.25

     hubbard stress (kbar)      0.00      0.00      0.00
                                0.00      0.00      0.00
                                0.00      0.00      0.00

     london  stress (kbar)      0.00      0.00      0.00
                                0.00      0.00      0.00
                                0.00      0.00      0.00

     DFT-D3  stress (kbar)      0.00      0.00      0.00
                                0.00      0.00      0.00
                                0.00      0.00      0.00

     XDM     stress (kbar)      0.00      0.00      0.00
                                0.00      0.00      0.00
                                0.00      0.00      0.00

     dft-nl  stress (kbar)      0.00      0.00      0.00
                                0.00      0.00      0.00
                                0.00      0.00      0.00

     TS-vdW  stress (kbar)      0.00      0.00      0.00
                                0.00      0.00      0.00
                                0.00      0.00      0.00



     BFGS Geometry Optimization

     number of scf cycles    =   1
     number of bfgs steps    =   0

     enthalpy new            =     -27.3328605002 Ry

     new trust radius        =       0.0039007904 bohr
     new conv_thr            =       0.0000010000 Ry

     new unit-cell volume =    879.74793 a.u.^3 (   130.36519 Ang^3 )
     density =      2.52071 g/cm^3

CELL_PARAMETERS (angstrom)
   4.517406044   0.000000000   0.000000000
   0.000000000   4.517406044   0.000000000
   0.000000000   0.000000000   6.388271832

ATOMIC_POSITIONS (crystal)
Si       0.500000000   0.500000000   0.500000000
Ge       0.000000000   0.000000000   0.000000000
Mg       0.500000000   0.000000000   0.250323037
Mg       0.000000000   0.500000000   0.250323037
Mg       0.000000000   0.500000000   0.749676963
Mg       0.500000000   0.000000000   0.749676963



     Writing output data file pwscf.save/
     NEW-OLD atomic charge density approx. for the potential
     extrapolated charge   15.98854, renormalised to   16.00000

     total cpu time spent up to now is       89.7 secs

     Self-consistent Calculation

     iteration #  1     ecut=    80.00 Ry     beta= 0.70
     CG style diagonalization
     ethr =  1.00E-06,  avg # of iterations =  2.9

     Threshold (ethr) on eigenvalues was too large:
     Diagonalizing with lowered threshold

     CG style diagonalization
     ethr =  2.30E-08,  avg # of iterations =  4.5

     total cpu time spent up to now is      106.7 secs

     total energy              =     -27.33291684 Ry
     Harris-Foulkes estimate   =     -27.32817372 Ry
     estimated scf accuracy    <       0.00000556 Ry

     iteration #  2     ecut=    80.00 Ry     beta= 0.70
     CG style diagonalization
     ethr =  3.47E-08,  avg # of iterations =  4.5

     total cpu time spent up to now is      116.0 secs

     total energy              =     -27.33292017 Ry
     Harris-Foulkes estimate   =     -27.33292317 Ry
     estimated scf accuracy    <       0.00000698 Ry

     iteration #  3     ecut=    80.00 Ry     beta= 0.70
     CG style diagonalization
     ethr =  3.47E-08,  avg # of iterations =  3.6

     total cpu time spent up to now is      123.4 secs

     End of self-consistent calculation

          k = 0.0000 0.0000 0.0000 ( 10555 PWs)   bands (ev):

    -5.0511  -3.1141  -0.0526   2.4425   2.4425   4.4115   4.4125   4.4125

     occupation numbers 
     1.0000   1.0000   1.0000   1.0000   1.0000   1.0000   1.0000   1.0000

          k = 0.0000 0.0000 0.1768 ( 10610 PWs)   bands (ev):

    -4.8935  -3.5196   0.5669   2.6230   2.6230   3.2864   3.9067   3.9067

     occupation numbers 
     1.0000   1.0000   1.0000   1.0000   1.0000   1.0000   1.0000   1.0000

          k = 0.0000 0.0000-0.3536 ( 10642 PWs)   bands (ev):

    -4.6191  -3.9910   1.7294   1.9499   3.1233   3.1233   3.1677   3.1677

     occupation numbers 
     1.0000   1.0000   1.0000   1.0000   1.0000   1.0000   1.0000   1.0000

          k = 0.0000 0.1250 0.0000 ( 10609 PWs)   bands (ev):

    -4.9649  -3.1034   0.0546   1.7973   2.5254   3.5487   4.0940   4.3937

     occupation numbers 
     1.0000   1.0000   1.0000   1.0000   1.0000   1.0000   1.0000   1.0000

          k = 0.0000 0.1250 0.1768 ( 10614 PWs)   bands (ev):

    -4.8120  -3.4743   0.5368   2.1258   2.5879   2.7021   3.9346   4.0811

     occupation numbers 
     1.0000   1.0000   1.0000   1.0000   1.0000   1.0000   1.0000   1.0000

          k = 0.0000 0.1250-0.3536 ( 10644 PWs)   bands (ev):

    -4.5513  -3.9137   1.3986   1.5657   3.0339   3.0347   3.1857   3.2346

     occupation numbers 
     1.0000   1.0000   1.0000   1.0000   1.0000   1.0000   1.0000   1.0000

          k = 0.0000 0.2501 0.0000 ( 10632 PWs)   bands (ev):

    -4.7186  -3.1187   0.3730   0.9512   2.3731   2.7671   3.3301   4.2908

     occupation numbers 
     1.0000   1.0000   1.0000   1.0000   1.0000   1.0000   1.0000   1.0000

          k = 0.0000 0.2501 0.1768 ( 10626 PWs)   bands (ev):

    -4.5834  -3.3754   0.2641   1.5230   1.7914   2.9296   3.9744   3.9756

     occupation numbers 
     1.0000   1.0000   1.0000   1.0000   1.0000   1.0000   1.0000   1.0000

          k = 0.0000 0.2501-0.3536 ( 10664 PWs)   bands (ev):

    -4.3698  -3.7019   0.6139   0.7075   3.1322   3.1808   3.3534   3.4149

     occupation numbers 
     1.0000   1.0000   1.0000   1.0000   1.0000   1.0000   1.0000   1.0000

          k = 0.0000 0.3751 0.0000 ( 10640 PWs)   bands (ev):

    -4.3665  -3.2615   0.5539   0.8927   1.3953   2.4341   3.1420   4.0199

     occupation numbers 
     1.0000   1.0000   1.0000   1.0000   1.0000   1.0000   1.0000   1.0000

          k = 0.0000 0.3751 0.1768 ( 10654 PWs)   bands (ev):

    -4.2737  -3.3311  -0.0802   0.6087   2.0761   3.2696   3.3978   3.9092

     occupation numbers 
     1.0000   1.0000   1.0000   1.0000   1.0000   1.0000   1.0000   1.0000

          k = 0.0000 0.3751-0.3536 ( 10632 PWs)   bands (ev):

    -4.1532  -3.4359  -0.0920  -0.0557   3.4578   3.5062   3.5544   3.6329

     occupation numbers 
     1.0000   1.0000   1.0000   1.0000   1.0000   1.0000   1.0000   1.0000

          k = 0.0000-0.5001 0.0000 ( 10608 PWs)   bands (ev):

    -4.1295  -3.4257   0.6865   0.7924   1.5853   1.6010   3.5611   3.6302

     occupation numbers 
     1.0000   1.0000   1.0000   1.0000   1.0000   1.0000   1.0000   1.0000

          k = 0.0000-0.5001 0.1768 ( 10648 PWs)   bands (ev):

    -4.0901  -3.3656   0.0022   0.0353   2.6511   2.6991   3.6049   3.6827

     occupation numbers 
     1.0000   1.0000   1.0000   1.0000   1.0000   1.0000   1.0000   1.0000

          k = 0.0000-0.5001-0.3536 ( 10684 PWs)   bands (ev):

    -4.0484  -3.2991  -0.3733  -0.3691   3.6520   3.6823   3.7090   3.7399

     occupation numbers 
     1.0000   1.0000   1.0000   1.0000   1.0000   1.0000   1.0000   1.0000

          k = 0.1250 0.1250 0.0000 ( 10615 PWs)   bands (ev):

    -4.8795  -3.0880   0.1611   1.7342   2.0323   3.2844   3.9059   3.9069

     occupation numbers 
     1.0000   1.0000   1.0000   1.0000   1.0000   1.0000   1.0000   1.0000

          k = 0.1250 0.1250 0.1768 ( 10608 PWs)   bands (ev):

    -4.7315  -3.4279   0.5454   1.9292   2.3722   2.4568   3.3308   4.2899

     occupation numbers 
     1.0000   1.0000   1.0000   1.0000   1.0000   1.0000   1.0000   1.0000

          k = 0.1250 0.1250-0.3536 ( 10642 PWs)   bands (ev):

    -4.4842  -3.8371   1.2687   1.4349   2.4762   2.5142   3.4783   3.4967

     occupation numbers 
     1.0000   1.0000   1.0000   1.0000   1.0000   1.0000   1.0000   1.0000

          k = 0.1250 0.2501 0.0000 ( 10634 PWs)   bands (ev):

    -4.6365  -3.0878   0.4773   0.9728   2.1918   2.2968   3.3154   3.7238

     occupation numbers 
     1.0000   1.0000   1.0000   1.0000   1.0000   1.0000   1.0000   1.0000

          k = 0.1250 0.2501 0.1768 ( 10617 PWs)   bands (ev):

    -4.5061  -3.3248   0.3561   1.5224   1.6038   2.6051   3.2194   3.9301

     occupation numbers 
     1.0000   1.0000   1.0000   1.0000   1.0000   1.0000   1.0000   1.0000

          k = 0.1250 0.2501-0.3536 ( 10658 PWs)   bands (ev):

    -4.3046  -3.6273   0.6711   0.7702   2.3748   2.3789   3.6408   3.6590

     occupation numbers 
     1.0000   1.0000   1.0000   1.0000   1.0000   1.0000   1.0000   1.0000

          k = 0.1250 0.3751 0.0000 ( 10639 PWs)   bands (ev):

    -4.2917  -3.2052   0.5582   0.9921   1.3565   2.4952   2.5846   3.4877

     occupation numbers 
     1.0000   1.0000   1.0000   1.0000   1.0000   1.0000   1.0000   1.0000

          k = 0.1250 0.3751 0.1768 ( 10650 PWs)   bands (ev):

    -4.2035  -3.2694   0.0146   0.6619   1.8704   2.9278   3.1574   3.3850

     occupation numbers 
     1.0000   1.0000   1.0000   1.0000   1.0000   1.0000   1.0000   1.0000

          k = 0.1250 0.3751-0.3536 ( 10648 PWs)   bands (ev):

    -4.0908  -3.3645   0.0001   0.0368   2.6670   2.6826   3.6402   3.6477

     occupation numbers 
     1.0000   1.0000   1.0000   1.0000   1.0000   1.0000   1.0000   1.0000

          k = 0.1250-0.5001 0.0000 ( 10608 PWs)   bands (ev):

    -4.0644  -3.3504   0.6685   0.7749   1.6758   1.6874   3.0367   3.0857

     occupation numbers 
     1.0000   1.0000   1.0000   1.0000   1.0000   1.0000   1.0000   1.0000

          k = 0.1250-0.5001 0.1768 ( 10640 PWs)   bands (ev):

    -4.0271  -3.2930   0.0766   0.1103   2.4422   2.4903   3.2145   3.2700

     occupation numbers 
     1.0000   1.0000   1.0000   1.0000   1.0000   1.0000   1.0000   1.0000

          k = 0.1250-0.5001-0.3536 ( 10636 PWs)   bands (ev):

    -3.9877  -3.2300  -0.2751  -0.2707   2.9359   2.9360   3.4876   3.5075

     occupation numbers 
     1.0000   1.0000   1.0000   1.0000   1.0000   1.0000   1.0000   1.0000

          k = 0.2501 0.2501 0.0000 ( 10681 PWs)   bands (ev):

    -4.4047  -3.0356   0.7855   0.7858   1.7460   1.8432   3.1454   3.1460

     occupation numbers 
     1.0000   1.0000   1.0000   1.0000   1.0000   1.0000   1.0000   1.0000

          k = 0.2501 0.2501 0.1768 ( 10639 PWs)   bands (ev):

    -4.2921  -3.2044   0.5581   0.9918   1.3559   2.4954   2.5858   3.4865

     occupation numbers 
     1.0000   1.0000   1.0000   1.0000   1.0000   1.0000   1.0000   1.0000

          k = 0.2501 0.2501-0.3536 ( 10608 PWs)   bands (ev):

    -4.1308  -3.4237   0.6857   0.7921   1.5867   1.5994   3.5896   3.6017

     occupation numbers 
     1.0000   1.0000   1.0000   1.0000   1.0000   1.0000   1.0000   1.0000

          k = 0.2501 0.3751 0.0000 ( 10654 PWs)   bands (ev):

    -4.0860  -3.0643   0.4428   1.1012   1.2827   1.9993   2.6277   2.8612

     occupation numbers 
     1.0000   1.0000   1.0000   1.0000   1.0000   1.0000   1.0000   1.0000

          k = 0.2501 0.3751 0.1768 ( 10650 PWs)   bands (ev):

    -4.0133  -3.1086   0.2756   0.7374   1.2030   2.2978   2.8079   2.9923

     occupation numbers 
     1.0000   1.0000   1.0000   1.0000   1.0000   1.0000   1.0000   1.0000

          k = 0.2501 0.3751-0.3536 ( 10630 PWs)   bands (ev):

    -3.9256  -3.1713   0.2601   0.2989   1.6379   1.6621   3.2249   3.2258

     occupation numbers 
     1.0000   1.0000   1.0000   1.0000   1.0000   1.0000   1.0000   1.0000

          k = 0.2501-0.5001 0.0000 ( 10608 PWs)   bands (ev):

    -3.8909  -3.1442   0.5050   0.5943   1.9292   1.9300   2.4411   2.4676

     occupation numbers 
     1.0000   1.0000   1.0000   1.0000   1.0000   1.0000   1.0000   1.0000

          k = 0.2501-0.5001 0.1768 ( 10640 PWs)   bands (ev):

    -3.8599  -3.0958   0.2482   0.2836   1.7742   1.7991   2.9166   2.9448

     occupation numbers 
     1.0000   1.0000   1.0000   1.0000   1.0000   1.0000   1.0000   1.0000

          k = 0.2501-0.5001-0.3536 ( 10636 PWs)   bands (ev):

    -3.8275  -3.0437   0.0119   0.0171   1.8518   1.8876   2.9268   2.9330

     occupation numbers 
     1.0000   1.0000   1.0000   1.0000   1.0000   1.0000   1.0000   1.0000

          k = 0.3751 0.3751 0.0000 ( 10647 PWs)   bands (ev):

    -3.8242  -2.9287   0.1608   0.5724   1.7346   2.0328   2.6236   2.6237

     occupation numbers 
     1.0000   1.0000   1.0000   1.0000   1.0000   1.0000   1.0000   1.0000

          k = 0.3751 0.3751 0.1768 ( 10632 PWs)   bands (ev):

    -3.7805  -2.9303   0.3728   0.5499   0.9516   1.9296   2.4540   2.7680

     occupation numbers 
     1.0000   1.0000   1.0000   1.0000   1.0000   1.0000   1.0000   1.0000

          k = 0.3751 0.3751-0.3536 ( 10636 PWs)   bands (ev):

    -3.7329  -2.9355   0.5404   0.5806   0.9881   0.9956   2.5847   2.5851

     occupation numbers 
     1.0000   1.0000   1.0000   1.0000   1.0000   1.0000   1.0000   1.0000

          k = 0.3751-0.5001 0.0000 ( 10672 PWs)   bands (ev):

    -3.6857  -2.8859   0.1429   0.1781   2.2493   2.2697   2.3624   2.3668

     occupation numbers 
     1.0000   1.0000   1.0000   1.0000   1.0000   1.0000   1.0000   1.0000

          k = 0.3751-0.5001 0.1768 ( 10648 PWs)   bands (ev):

    -3.6641  -2.8530   0.2699   0.2925   1.4772   1.4822   2.4882   2.4985

     occupation numbers 
     1.0000   1.0000   1.0000   1.0000   1.0000   1.0000   1.0000   1.0000

          k = 0.3751-0.5001-0.3536 ( 10608 PWs)   bands (ev):

    -3.6419  -2.8186   0.4480   0.4561   1.0686   1.0965   2.1964   2.2013

     occupation numbers 
     1.0000   1.0000   1.0000   1.0000   1.0000   1.0000   1.0000   1.0000

          k =-0.5001-0.5001 0.0000 ( 10692 PWs)   bands (ev):

    -3.5874  -2.7536  -0.0529  -0.0529   2.4262   2.4430   2.4430   2.4602

     occupation numbers 
     1.0000   1.0000   1.0000   1.0000   1.0000   1.0000   1.0000   1.0000

          k =-0.5001-0.5001 0.1768 ( 10652 PWs)   bands (ev):

    -3.5713  -2.7313   0.1608   0.1608   1.7344   1.7344   2.0311   2.0336

     occupation numbers 
     1.0000   1.0000   1.0000   1.0000   1.0000   1.0000   1.0000   1.0000

          k =-0.5001-0.5001-0.3536 ( 10720 PWs)   bands (ev):

    -3.5549  -2.7083   0.7782   0.7782   0.7929   0.7929   1.7397   1.7534

     occupation numbers 
     1.0000   1.0000   1.0000   1.0000   1.0000   1.0000   1.0000   1.0000

     highest occupied level (ev):     4.4125

!    total energy              =     -27.33292073 Ry
     Harris-Foulkes estimate   =     -27.33292106 Ry
     estimated scf accuracy    <       0.00000049 Ry

     The total energy is the sum of the following terms:

     one-electron contribution =       7.30840328 Ry
     hartree contribution      =       2.18845160 Ry
     xc contribution           =     -12.90486203 Ry
     ewald contribution        =     -23.92491357 Ry

     convergence has been achieved in   3 iterations

     Forces acting on atoms (cartesian axes, Ry/au):

     atom    1 type  3   force =     0.00000000    0.00000000    0.00000000
     atom    2 type  2   force =     0.00000000    0.00000000    0.00000000
     atom    3 type  1   force =     0.00000000    0.00000000    0.00311930
     atom    4 type  1   force =     0.00000000    0.00000000    0.00311930
     atom    5 type  1   force =     0.00000000    0.00000000   -0.00311930
     atom    6 type  1   force =     0.00000000    0.00000000   -0.00311930
     The non-local contrib.  to forces
     atom    1 type  3   force =     0.00000000    0.00000000    0.00000000
     atom    2 type  2   force =     0.00000000    0.00000000    0.00000000
     atom    3 type  1   force =     0.00000000    0.00000000    0.00022148
     atom    4 type  1   force =     0.00000000    0.00000000    0.00022148
     atom    5 type  1   force =     0.00000000    0.00000000   -0.00022148
     atom    6 type  1   force =     0.00000000    0.00000000   -0.00022148
     The ionic contribution  to forces
     atom    1 type  3   force =    -0.00000000   -0.00000000   -0.00000000
     atom    2 type  2   force =     0.00000000    0.00000000    0.00000000
     atom    3 type  1   force =     0.00000000   -0.00000000   -0.00256248
     atom    4 type  1   force =    -0.00000000    0.00000000   -0.00256248
     atom    5 type  1   force =    -0.00000000   -0.00000000    0.00256248
     atom    6 type  1   force =     0.00000000   -0.00000000    0.00256248
     The local contribution  to forces
     atom    1 type  3   force =     0.00000000    0.00000000   -0.00000000
     atom    2 type  2   force =    -0.00000000    0.00000000    0.00000000
     atom    3 type  1   force =    -0.00000000   -0.00000000    0.00547525
     atom    4 type  1   force =     0.00000000   -0.00000000    0.00547525
     atom    5 type  1   force =     0.00000000   -0.00000000   -0.00547525
     atom    6 type  1   force =    -0.00000000   -0.00000000   -0.00547525
     The core correction contribution to forces
     atom    1 type  3   force =     0.00000000    0.00000000    0.00000000
     atom    2 type  2   force =     0.00000000    0.00000000    0.00000000
     atom    3 type  1   force =    -0.00000000   -0.00000000   -0.00003977
     atom    4 type  1   force =     0.00000000   -0.00000000   -0.00003977
     atom    5 type  1   force =     0.00000000    0.00000000    0.00003977
     atom    6 type  1   force =     0.00000000   -0.00000000    0.00003977
     The Hubbard contrib.    to forces
     atom    1 type  3   force =     0.00000000    0.00000000    0.00000000
     atom    2 type  2   force =     0.00000000    0.00000000    0.00000000
     atom    3 type  1   force =     0.00000000    0.00000000    0.00000000
     atom    4 type  1   force =     0.00000000    0.00000000    0.00000000
     atom    5 type  1   force =     0.00000000    0.00000000    0.00000000
     atom    6 type  1   force =     0.00000000    0.00000000    0.00000000
     The SCF correction term to forces
     atom    1 type  3   force =    -0.00000000   -0.00000000    0.00000000
     atom    2 type  2   force =     0.00000000    0.00000000    0.00000000
     atom    3 type  1   force =    -0.00000000    0.00000000    0.00002482
     atom    4 type  1   force =     0.00000000   -0.00000000    0.00002482
     atom    5 type  1   force =     0.00000000   -0.00000000   -0.00002482
     atom    6 type  1   force =    -0.00000000    0.00000000   -0.00002482

     Total force =     0.006239     Total SCF correction =     0.000050


     Computing stress (Cartesian axis) and pressure

          total   stress  (Ry/bohr**3)                   (kbar)     P=   -1.07
  -0.00000677   0.00000000   0.00000000         -1.00      0.00      0.00
   0.00000000  -0.00000677   0.00000000          0.00     -1.00      0.00
   0.00000000   0.00000000  -0.00000821          0.00      0.00     -1.21

     kinetic stress (kbar)    985.74      0.00      0.00
                                0.00    985.74      0.00
                                0.00      0.00    985.20

     local   stress (kbar)    -76.04     -0.00      0.00
                               -0.00    -76.04      0.00
                                0.00      0.00    -75.31

     nonloc. stress (kbar)    776.87      0.00      0.00
                                0.00    776.87      0.00
                                0.00      0.00    776.51

     hartree stress (kbar)    121.98     -0.00      0.00
                               -0.00    121.98      0.00
                                0.00      0.00    121.98

     exc-cor stress (kbar)    295.58      0.00      0.00
                                0.00    295.58      0.00
                                0.00      0.00    295.58

     corecor stress (kbar)   -771.63      0.00     -0.00
                               -0.00   -771.63     -0.00
                               -0.00     -0.00   -771.60

     ewald   stress (kbar)  -1333.50     -0.00     -0.00
                               -0.00  -1333.50     -0.00
                               -0.00     -0.00  -1333.55

     hubbard stress (kbar)      0.00      0.00      0.00
                                0.00      0.00      0.00
                                0.00      0.00      0.00

     london  stress (kbar)      0.00      0.00      0.00
                                0.00      0.00      0.00
                                0.00      0.00      0.00

     DFT-D3  stress (kbar)      0.00      0.00      0.00
                                0.00      0.00      0.00
                                0.00      0.00      0.00

     XDM     stress (kbar)      0.00      0.00      0.00
                                0.00      0.00      0.00
                                0.00      0.00      0.00

     dft-nl  stress (kbar)      0.00      0.00      0.00
                                0.00      0.00      0.00
                                0.00      0.00      0.00

     TS-vdW  stress (kbar)      0.00      0.00      0.00
                                0.00      0.00      0.00
                                0.00      0.00      0.00



     number of scf cycles    =   2
     number of bfgs steps    =   1

     enthalpy old            =     -27.3328605002 Ry
     enthalpy new            =     -27.3329207330 Ry

     CASE: enthalpy_new < enthalpy_old

     new trust radius        =       0.0058496031 bohr
     new conv_thr            =       0.0000000100 Ry

     new unit-cell volume =    878.85142 a.u.^3 (   130.23234 Ang^3 )
     density =      2.52328 g/cm^3

CELL_PARAMETERS (angstrom)
   4.515972793   0.000000000   0.000000000
   0.000000000   4.515972793   0.000000000
   0.000000000   0.000000000   6.385813321

ATOMIC_POSITIONS (crystal)
Si       0.500000000   0.500000000   0.500000000
Ge       0.000000000   0.000000000   0.000000000
Mg       0.500000000   0.000000000   0.250807594
Mg       0.000000000   0.500000000   0.250807594
Mg       0.000000000   0.500000000   0.749192406
Mg       0.500000000   0.000000000   0.749192406



     Writing output data file pwscf.save/
     NEW-OLD atomic charge density approx. for the potential
     extrapolated charge   15.98368, renormalised to   16.00000

     total cpu time spent up to now is      132.1 secs

     Self-consistent Calculation

     iteration #  1     ecut=    80.00 Ry     beta= 0.70
     CG style diagonalization
     ethr =  1.00E-06,  avg # of iterations =  3.3

     Threshold (ethr) on eigenvalues was too large:
     Diagonalizing with lowered threshold

     CG style diagonalization
     ethr =  3.69E-08,  avg # of iterations =  3.9

     total cpu time spent up to now is      148.4 secs

     total energy              =     -27.33297975 Ry
     Harris-Foulkes estimate   =     -27.32621849 Ry
     estimated scf accuracy    <       0.00000612 Ry

     iteration #  2     ecut=    80.00 Ry     beta= 0.70
     CG style diagonalization
     ethr =  3.83E-08,  avg # of iterations =  4.7

     total cpu time spent up to now is      157.9 secs

     total energy              =     -27.33298500 Ry
     Harris-Foulkes estimate   =     -27.33298781 Ry
     estimated scf accuracy    <       0.00000720 Ry

     iteration #  3     ecut=    80.00 Ry     beta= 0.70
     CG style diagonalization
     ethr =  3.83E-08,  avg # of iterations =  3.2

     total cpu time spent up to now is      164.3 secs

     total energy              =     -27.33298489 Ry
     Harris-Foulkes estimate   =     -27.33298555 Ry
     estimated scf accuracy    <       0.00000117 Ry

     iteration #  4     ecut=    80.00 Ry     beta= 0.70
     CG style diagonalization
     ethr =  7.34E-09,  avg # of iterations =  4.5

     total cpu time spent up to now is      173.4 secs

     total energy              =     -27.33298533 Ry
     Harris-Foulkes estimate   =     -27.33298541 Ry
     estimated scf accuracy    <       0.00000015 Ry

     iteration #  5     ecut=    80.00 Ry     beta= 0.70
     CG style diagonalization
     ethr =  9.26E-10,  avg # of iterations =  4.1

     total cpu time spent up to now is      181.7 secs

     End of self-consistent calculation

          k = 0.0000 0.0000 0.0000 ( 10555 PWs)   bands (ev):

    -5.0453  -3.1144  -0.0482   2.4467   2.4467   4.4175   4.4190   4.4190

     occupation numbers 
     1.0000   1.0000   1.0000   1.0000   1.0000   1.0000   1.0000   1.0000

          k = 0.0000 0.0000 0.1769 ( 10610 PWs)   bands (ev):

    -4.8862  -3.5217   0.5718   2.6271   2.6271   3.2935   3.9130   3.9130

     occupation numbers 
     1.0000   1.0000   1.0000   1.0000   1.0000   1.0000   1.0000   1.0000

          k = 0.0000 0.0000-0.3538 ( 10642 PWs)   bands (ev):

    -4.6055  -3.9996   1.7340   1.9574   3.1156   3.1156   3.1856   3.1856

     occupation numbers 
     1.0000   1.0000   1.0000   1.0000   1.0000   1.0000   1.0000   1.0000

          k = 0.0000 0.1251 0.0000 ( 10609 PWs)   bands (ev):

    -4.9588  -3.1038   0.0590   1.8014   2.5296   3.5555   4.1000   4.4002

     occupation numbers 
     1.0000   1.0000   1.0000   1.0000   1.0000   1.0000   1.0000   1.0000

          k = 0.0000 0.1251 0.1769 ( 10614 PWs)   bands (ev):

    -4.8045  -3.4765   0.5416   2.1295   2.5948   2.7062   3.9410   4.0874

     occupation numbers 
     1.0000   1.0000   1.0000   1.0000   1.0000   1.0000   1.0000   1.0000

          k = 0.0000 0.1251-0.3538 ( 10644 PWs)   bands (ev):

    -4.5377  -3.9223   1.4065   1.5678   3.0316   3.0492   3.1780   3.2526

     occupation numbers 
     1.0000   1.0000   1.0000   1.0000   1.0000   1.0000   1.0000   1.0000

          k = 0.0000 0.2501 0.0000 ( 10632 PWs)   bands (ev):

    -4.7117  -3.1197   0.3776   0.9548   2.3793   2.7713   3.3358   4.2974

     occupation numbers 
     1.0000   1.0000   1.0000   1.0000   1.0000   1.0000   1.0000   1.0000

          k = 0.0000 0.2501 0.1769 ( 10626 PWs)   bands (ev):

    -4.5748  -3.3782   0.2685   1.5251   1.7993   2.9336   3.9804   3.9823

     occupation numbers 
     1.0000   1.0000   1.0000   1.0000   1.0000   1.0000   1.0000   1.0000

          k = 0.0000 0.2501-0.3538 ( 10664 PWs)   bands (ev):

    -4.3559  -3.7103   0.6254   0.7044   3.1426   3.1832   3.3457   3.4332

     occupation numbers 
     1.0000   1.0000   1.0000   1.0000   1.0000   1.0000   1.0000   1.0000

          k = 0.0000 0.3752 0.0000 ( 10640 PWs)   bands (ev):

    -4.3573  -3.2645   0.5564   0.8975   1.4017   2.4395   3.1459   4.0267

     occupation numbers 
     1.0000   1.0000   1.0000   1.0000   1.0000   1.0000   1.0000   1.0000

          k = 0.0000 0.3752 0.1769 ( 10654 PWs)   bands (ev):

    -4.2628  -3.3358  -0.0767   0.6127   2.0819   3.2730   3.4038   3.9166

     occupation numbers 
     1.0000   1.0000   1.0000   1.0000   1.0000   1.0000   1.0000   1.0000

          k = 0.0000 0.3752-0.3538 ( 10632 PWs)   bands (ev):

    -4.1390  -3.4439  -0.0796  -0.0609   3.4666   3.5099   3.5466   3.6516

     occupation numbers 
     1.0000   1.0000   1.0000   1.0000   1.0000   1.0000   1.0000   1.0000

          k = 0.0000-0.5003 0.0000 ( 10608 PWs)   bands (ev):

    -4.1163  -3.4324   0.6781   0.8093   1.5933   1.6033   3.5543   3.6476

     occupation numbers 
     1.0000   1.0000   1.0000   1.0000   1.0000   1.0000   1.0000   1.0000

          k = 0.0000-0.5003 0.1769 ( 10648 PWs)   bands (ev):

    -4.0764  -3.3728  -0.0031   0.0478   2.6557   2.7064   3.5976   3.7008

     occupation numbers 
     1.0000   1.0000   1.0000   1.0000   1.0000   1.0000   1.0000   1.0000

          k = 0.0000-0.5003-0.3538 ( 10684 PWs)   bands (ev):

    -4.0341  -3.3070  -0.3748  -0.3607   3.6441   3.6903   3.7128   3.7588

     occupation numbers 
     1.0000   1.0000   1.0000   1.0000   1.0000   1.0000   1.0000   1.0000

          k = 0.1251 0.1251 0.0000 ( 10615 PWs)   bands (ev):

    -4.8733  -3.0886   0.1656   1.7384   2.0364   3.2911   3.9117   3.9131

     occupation numbers 
     1.0000   1.0000   1.0000   1.0000   1.0000   1.0000   1.0000   1.0000

          k = 0.1251 0.1251 0.1769 ( 10608 PWs)   bands (ev):

    -4.7237  -3.4303   0.5503   1.9334   2.3735   2.4658   3.3369   4.2961

     occupation numbers 
     1.0000   1.0000   1.0000   1.0000   1.0000   1.0000   1.0000   1.0000

          k = 0.1251 0.1251-0.3538 ( 10642 PWs)   bands (ev):

    -4.4704  -3.8456   1.2770   1.4365   2.4684   2.5323   3.4766   3.5104

     occupation numbers 
     1.0000   1.0000   1.0000   1.0000   1.0000   1.0000   1.0000   1.0000

          k = 0.1251 0.2501 0.0000 ( 10634 PWs)   bands (ev):

    -4.6293  -3.0890   0.4820   0.9765   2.1965   2.3025   3.3210   3.7301

     occupation numbers 
     1.0000   1.0000   1.0000   1.0000   1.0000   1.0000   1.0000   1.0000

          k = 0.1251 0.2501 0.1769 ( 10617 PWs)   bands (ev):

    -4.4973  -3.3278   0.3606   1.5216   1.6140   2.6095   3.2258   3.9362

     occupation numbers 
     1.0000   1.0000   1.0000   1.0000   1.0000   1.0000   1.0000   1.0000

          k = 0.1251 0.2501-0.3538 ( 10658 PWs)   bands (ev):

    -4.2907  -3.6356   0.6824   0.7674   2.3734   2.3910   3.6406   3.6714

     occupation numbers 
     1.0000   1.0000   1.0000   1.0000   1.0000   1.0000   1.0000   1.0000

          k = 0.1251 0.3752 0.0000 ( 10639 PWs)   bands (ev):

    -4.2822  -3.2083   0.5609   0.9970   1.3629   2.5006   2.5886   3.4940

     occupation numbers 
     1.0000   1.0000   1.0000   1.0000   1.0000   1.0000   1.0000   1.0000

          k = 0.1251 0.3752 0.1769 ( 10650 PWs)   bands (ev):

    -4.1923  -3.2742   0.0182   0.6659   1.8761   2.9307   3.1650   3.3911

     occupation numbers 
     1.0000   1.0000   1.0000   1.0000   1.0000   1.0000   1.0000   1.0000

          k = 0.1251 0.3752-0.3538 ( 10648 PWs)   bands (ev):

    -4.0766  -3.3725   0.0126   0.0317   2.6773   2.6830   3.6411   3.6586

     occupation numbers 
     1.0000   1.0000   1.0000   1.0000   1.0000   1.0000   1.0000   1.0000

          k = 0.1251-0.5003 0.0000 ( 10608 PWs)   bands (ev):

    -4.0511  -3.3571   0.6609   0.7911   1.6839   1.6897   3.0307   3.1019

     occupation numbers 
     1.0000   1.0000   1.0000   1.0000   1.0000   1.0000   1.0000   1.0000

          k = 0.1251-0.5003 0.1769 ( 10640 PWs)   bands (ev):

    -4.0134  -3.3002   0.0712   0.1231   2.4508   2.4929   3.2117   3.2839

     occupation numbers 
     1.0000   1.0000   1.0000   1.0000   1.0000   1.0000   1.0000   1.0000

          k = 0.1251-0.5003-0.3538 ( 10636 PWs)   bands (ev):

    -3.9734  -3.2378  -0.2764  -0.2624   2.9287   2.9544   3.4959   3.5107

     occupation numbers 
     1.0000   1.0000   1.0000   1.0000   1.0000   1.0000   1.0000   1.0000

          k = 0.2501 0.2501 0.0000 ( 10681 PWs)   bands (ev):

    -4.3965  -3.0373   0.7896   0.7906   1.7467   1.8524   3.1509   3.1517

     occupation numbers 
     1.0000   1.0000   1.0000   1.0000   1.0000   1.0000   1.0000   1.0000

          k = 0.2501 0.2501 0.1769 ( 10639 PWs)   bands (ev):

    -4.2823  -3.2080   0.5629   0.9960   1.3600   2.5009   2.5914   3.4922

     occupation numbers 
     1.0000   1.0000   1.0000   1.0000   1.0000   1.0000   1.0000   1.0000

          k = 0.2501 0.2501-0.3538 ( 10608 PWs)   bands (ev):

    -4.1167  -3.4318   0.6967   0.7899   1.5785   1.6172   3.5903   3.6127

     occupation numbers 
     1.0000   1.0000   1.0000   1.0000   1.0000   1.0000   1.0000   1.0000

          k = 0.2501 0.3752 0.0000 ( 10654 PWs)   bands (ev):

    -4.0756  -3.0680   0.4462   1.1065   1.2877   2.0038   2.6330   2.8668

     occupation numbers 
     1.0000   1.0000   1.0000   1.0000   1.0000   1.0000   1.0000   1.0000

          k = 0.2501 0.3752 0.1769 ( 10650 PWs)   bands (ev):

    -4.0014  -3.1138   0.2793   0.7419   1.2076   2.3027   2.8137   2.9976

     occupation numbers 
     1.0000   1.0000   1.0000   1.0000   1.0000   1.0000   1.0000   1.0000

          k = 0.2501 0.3752-0.3538 ( 10630 PWs)   bands (ev):

    -3.9113  -3.1790   0.2729   0.2939   1.6548   1.6551   3.2266   3.2349

     occupation numbers 
     1.0000   1.0000   1.0000   1.0000   1.0000   1.0000   1.0000   1.0000

          k = 0.2501-0.5003 0.0000 ( 10608 PWs)   bands (ev):

    -3.8774  -3.1508   0.5017   0.6061   1.9313   1.9384   2.4393   2.4792

     occupation numbers 
     1.0000   1.0000   1.0000   1.0000   1.0000   1.0000   1.0000   1.0000

          k = 0.2501-0.5003 0.1769 ( 10640 PWs)   bands (ev):

    -3.8460  -3.1028   0.2432   0.2965   1.7880   1.7951   2.9202   2.9522

     occupation numbers 
     1.0000   1.0000   1.0000   1.0000   1.0000   1.0000   1.0000   1.0000

          k = 0.2501-0.5003-0.3538 ( 10636 PWs)   bands (ev):

    -3.8132  -3.0512   0.0112   0.0252   1.8697   1.8800   2.9346   2.9354

     occupation numbers 
     1.0000   1.0000   1.0000   1.0000   1.0000   1.0000   1.0000   1.0000

          k = 0.3752 0.3752 0.0000 ( 10647 PWs)   bands (ev):

    -3.8119  -2.9339   0.1647   0.5766   1.7396   2.0377   2.6289   2.6290

     occupation numbers 
     1.0000   1.0000   1.0000   1.0000   1.0000   1.0000   1.0000   1.0000

          k = 0.3752 0.3752 0.1769 ( 10632 PWs)   bands (ev):

    -3.7672  -2.9364   0.3768   0.5544   0.9556   1.9347   2.4588   2.7733

     occupation numbers 
     1.0000   1.0000   1.0000   1.0000   1.0000   1.0000   1.0000   1.0000

          k = 0.3752 0.3752-0.3538 ( 10636 PWs)   bands (ev):

    -3.7185  -2.9428   0.5536   0.5757   0.9872   1.0056   2.5855   2.5940

     occupation numbers 
     1.0000   1.0000   1.0000   1.0000   1.0000   1.0000   1.0000   1.0000

          k = 0.3752-0.5003 0.0000 ( 10672 PWs)   bands (ev):

    -3.6718  -2.8924   0.1451   0.1839   2.2510   2.2784   2.3660   2.3732

     occupation numbers 
     1.0000   1.0000   1.0000   1.0000   1.0000   1.0000   1.0000   1.0000

          k = 0.3752-0.5003 0.1769 ( 10648 PWs)   bands (ev):

    -3.6499  -2.8598   0.2701   0.3005   1.4819   1.4866   2.4933   2.5034

     occupation numbers 
     1.0000   1.0000   1.0000   1.0000   1.0000   1.0000   1.0000   1.0000

          k = 0.3752-0.5003-0.3538 ( 10608 PWs)   bands (ev):

    -3.6275  -2.8257   0.4495   0.4626   1.0861   1.0883   2.1976   2.2091

     occupation numbers 
     1.0000   1.0000   1.0000   1.0000   1.0000   1.0000   1.0000   1.0000

          k =-0.5003-0.5003 0.0000 ( 10692 PWs)   bands (ev):

    -3.5732  -2.7601  -0.0490  -0.0490   2.4274   2.4482   2.4482   2.4692

     occupation numbers 
     1.0000   1.0000   1.0000   1.0000   1.0000   1.0000   1.0000   1.0000

          k =-0.5003-0.5003 0.1769 ( 10652 PWs)   bands (ev):

    -3.5570  -2.7380   0.1648   0.1648   1.7394   1.7394   2.0358   2.0378

     occupation numbers 
     1.0000   1.0000   1.0000   1.0000   1.0000   1.0000   1.0000   1.0000

          k =-0.5003-0.5003-0.3538 ( 10720 PWs)   bands (ev):

    -3.5404  -2.7151   0.7843   0.7843   0.7955   0.7955   1.7424   1.7588

     occupation numbers 
     1.0000   1.0000   1.0000   1.0000   1.0000   1.0000   1.0000   1.0000

     highest occupied level (ev):     4.4190

!    total energy              =     -27.33298537 Ry
     Harris-Foulkes estimate   =     -27.33298537 Ry
     estimated scf accuracy    <          1.8E-09 Ry

     The total energy is the sum of the following terms:

     one-electron contribution =       7.31896156 Ry
     hartree contribution      =       2.18839378 Ry
     xc contribution           =     -12.90739965 Ry
     ewald contribution        =     -23.93294106 Ry

     convergence has been achieved in   5 iterations

     Forces acting on atoms (cartesian axes, Ry/au):

     atom    1 type  3   force =     0.00000000    0.00000000    0.00000000
     atom    2 type  2   force =     0.00000000    0.00000000    0.00000000
     atom    3 type  1   force =     0.00000000    0.00000000    0.00199538
     atom    4 type  1   force =     0.00000000    0.00000000    0.00199538
     atom    5 type  1   force =     0.00000000    0.00000000   -0.00199538
     atom    6 type  1   force =     0.00000000    0.00000000   -0.00199538
     The non-local contrib.  to forces
     atom    1 type  3   force =     0.00000000    0.00000000    0.00000000
     atom    2 type  2   force =     0.00000000    0.00000000    0.00000000
     atom    3 type  1   force =     0.00000000    0.00000000   -0.00078660
     atom    4 type  1   force =     0.00000000    0.00000000   -0.00078660
     atom    5 type  1   force =     0.00000000    0.00000000    0.00078660
     atom    6 type  1   force =     0.00000000    0.00000000    0.00078660
     The ionic contribution  to forces
     atom    1 type  3   force =     0.00000000    0.00000000    0.00000000
     atom    2 type  2   force =    -0.00000000   -0.00000000   -0.00000000
     atom    3 type  1   force =     0.00000000   -0.00000000   -0.00641017
     atom    4 type  1   force =    -0.00000000    0.00000000   -0.00641017
     atom    5 type  1   force =    -0.00000000    0.00000000    0.00641017
     atom    6 type  1   force =     0.00000000   -0.00000000    0.00641017
     The local contribution  to forces
     atom    1 type  3   force =     0.00000000    0.00000000   -0.00000000
     atom    2 type  2   force =    -0.00000000    0.00000000    0.00000000
     atom    3 type  1   force =    -0.00000000   -0.00000000    0.00909505
     atom    4 type  1   force =    -0.00000000   -0.00000000    0.00909505
     atom    5 type  1   force =    -0.00000000   -0.00000000   -0.00909505
     atom    6 type  1   force =    -0.00000000    0.00000000   -0.00909505
     The core correction contribution to forces
     atom    1 type  3   force =     0.00000000    0.00000000    0.00000000
     atom    2 type  2   force =     0.00000000    0.00000000    0.00000000
     atom    3 type  1   force =    -0.00000000    0.00000000    0.00009348
     atom    4 type  1   force =     0.00000000   -0.00000000    0.00009348
     atom    5 type  1   force =     0.00000000    0.00000000   -0.00009348
     atom    6 type  1   force =     0.00000000   -0.00000000   -0.00009348
     The Hubbard contrib.    to forces
     atom    1 type  3   force =     0.00000000    0.00000000    0.00000000
     atom    2 type  2   force =     0.00000000    0.00000000    0.00000000
     atom    3 type  1   force =     0.00000000    0.00000000    0.00000000
     atom    4 type  1   force =     0.00000000    0.00000000    0.00000000
     atom    5 type  1   force =     0.00000000    0.00000000    0.00000000
     atom    6 type  1   force =     0.00000000    0.00000000    0.00000000
     The SCF correction term to forces
     atom    1 type  3   force =     0.00000000   -0.00000000   -0.00000000
     atom    2 type  2   force =    -0.00000000    0.00000000    0.00000000
     atom    3 type  1   force =    -0.00000000    0.00000000    0.00000362
     atom    4 type  1   force =     0.00000000   -0.00000000    0.00000362
     atom    5 type  1   force =     0.00000000   -0.00000000   -0.00000362
     atom    6 type  1   force =     0.00000000    0.00000000   -0.00000362

     Total force =     0.003991     Total SCF correction =     0.000007


     Computing stress (Cartesian axis) and pressure

          total   stress  (Ry/bohr**3)                   (kbar)     P=   -0.43
  -0.00000266   0.00000000   0.00000000         -0.39      0.00      0.00
   0.00000000  -0.00000266   0.00000000          0.00     -0.39      0.00
   0.00000000   0.00000000  -0.00000346          0.00      0.00     -0.51

     kinetic stress (kbar)    987.30      0.00      0.00
                                0.00    987.30      0.00
                                0.00      0.00    986.82

     local   stress (kbar)    -76.08      0.00      0.00
                                0.00    -76.08      0.00
                                0.00      0.00    -75.17

     nonloc. stress (kbar)    778.23      0.00      0.00
                                0.00    778.23      0.00
                                0.00      0.00    777.88

     hartree stress (kbar)    122.12      0.00     -0.00
                                0.00    122.12     -0.00
                               -0.00     -0.00    122.06

     exc-cor stress (kbar)    295.77      0.00     -0.00
                                0.00    295.77     -0.00
                               -0.00     -0.00    295.76

     corecor stress (kbar)   -772.46      0.00      0.00
                                0.00   -772.46      0.00
                                0.00      0.00   -772.43

     ewald   stress (kbar)  -1335.27     -0.00      0.00
                               -0.00  -1335.27      0.00
                                0.00      0.00  -1335.44

     hubbard stress (kbar)      0.00      0.00      0.00
                                0.00      0.00      0.00
                                0.00      0.00      0.00

     london  stress (kbar)      0.00      0.00      0.00
                                0.00      0.00      0.00
                                0.00      0.00      0.00

     DFT-D3  stress (kbar)      0.00      0.00      0.00
                                0.00      0.00      0.00
                                0.00      0.00      0.00

     XDM     stress (kbar)      0.00      0.00      0.00
                                0.00      0.00      0.00
                                0.00      0.00      0.00

[...]

     occupation numbers 
     1.0000   1.0000   1.0000   1.0000   1.0000   1.0000   1.0000   1.0000

          k = 0.0000 0.0000 0.1769 ( 10562 PWs)   bands (ev):

    -4.8748  -3.5271   0.5761   2.6296   2.6296   3.3003   3.9200   3.9200

     occupation numbers 
     1.0000   1.0000   1.0000   1.0000   1.0000   1.0000   1.0000   1.0000

          k = 0.0000 0.0000-0.3539 ( 10642 PWs)   bands (ev):

    -4.5829  -4.0164   1.7371   1.9652   3.0977   3.0977   3.2127   3.2127

     occupation numbers 
     1.0000   1.0000   1.0000   1.0000   1.0000   1.0000   1.0000   1.0000

          k = 0.0000 0.1251 0.0000 ( 10579 PWs)   bands (ev):

    -4.9495  -3.1068   0.0629   1.8042   2.5324   3.5626   4.1054   4.4074

     occupation numbers 
     1.0000   1.0000   1.0000   1.0000   1.0000   1.0000   1.0000   1.0000

          k = 0.0000 0.1251 0.1769 ( 10586 PWs)   bands (ev):

    -4.7926  -3.4821   0.5460   2.1305   2.6027   2.7085   3.9481   4.0936

     occupation numbers 
     1.0000   1.0000   1.0000   1.0000   1.0000   1.0000   1.0000   1.0000

          k = 0.0000 0.1251-0.3539 ( 10626 PWs)   bands (ev):

    -4.5150  -3.9390   1.4158   1.5664   3.0228   3.0697   3.1601   3.2798

     occupation numbers 
     1.0000   1.0000   1.0000   1.0000   1.0000   1.0000   1.0000   1.0000

          k = 0.0000 0.2502 0.0000 ( 10592 PWs)   bands (ev):

    -4.7010  -3.1235   0.3817   0.9569   2.3859   2.7739   3.3409   4.3047

     occupation numbers 
     1.0000   1.0000   1.0000   1.0000   1.0000   1.0000   1.0000   1.0000

          k = 0.0000 0.2502 0.1769 ( 10611 PWs)   bands (ev):

    -4.5615  -3.3850   0.2725   1.5232   1.8096   2.9356   3.9861   3.9900

     occupation numbers 
     1.0000   1.0000   1.0000   1.0000   1.0000   1.0000   1.0000   1.0000

          k = 0.0000 0.2502-0.3539 ( 10620 PWs)   bands (ev):

    -4.3331  -3.7268   0.6417   0.6949   3.1558   3.1820   3.3277   3.4608

     occupation numbers 
     1.0000   1.0000   1.0000   1.0000   1.0000   1.0000   1.0000   1.0000

          k = 0.0000 0.3753 0.0000 ( 10626 PWs)   bands (ev):

    -4.3428  -3.2716   0.5563   0.9018   1.4094   2.4443   3.1476   4.0347

     occupation numbers 
     1.0000   1.0000   1.0000   1.0000   1.0000   1.0000   1.0000   1.0000

          k = 0.0000 0.3753 0.1769 ( 10632 PWs)   bands (ev):

    -4.2456  -3.3458  -0.0743   0.6163   2.0875   3.2735   3.4094   3.9261

     occupation numbers 
     1.0000   1.0000   1.0000   1.0000   1.0000   1.0000   1.0000   1.0000

          k = 0.0000 0.3753-0.3539 ( 10602 PWs)   bands (ev):

    -4.1160  -3.4601  -0.0733  -0.0610   3.4769   3.5111   3.5284   3.6799

     occupation numbers 
     1.0000   1.0000   1.0000   1.0000   1.0000   1.0000   1.0000   1.0000

          k = 0.0000-0.5004 0.0000 ( 10608 PWs)   bands (ev):

    -4.0949  -3.4462   0.6593   0.8352   1.6027   1.6028   3.5379   3.6735

     occupation numbers 
     1.0000   1.0000   1.0000   1.0000   1.0000   1.0000   1.0000   1.0000

          k = 0.0000-0.5004 0.1769 ( 10604 PWs)   bands (ev):

    -4.0542  -3.3875  -0.0160   0.0665   2.6586   2.7144   3.5804   3.7280

     occupation numbers 
     1.0000   1.0000   1.0000   1.0000   1.0000   1.0000   1.0000   1.0000

          k = 0.0000-0.5004-0.3539 ( 10684 PWs)   bands (ev):

    -4.0109  -3.3230  -0.3881  -0.3417   3.6258   3.6998   3.7145   3.7876

     occupation numbers 
     1.0000   1.0000   1.0000   1.0000   1.0000   1.0000   1.0000   1.0000

          k = 0.1251 0.1251 0.0000 ( 10571 PWs)   bands (ev):

    -4.8635  -3.0918   0.1695   1.7413   2.0392   3.2981   3.9170   3.9197

     occupation numbers 
     1.0000   1.0000   1.0000   1.0000   1.0000   1.0000   1.0000   1.0000

          k = 0.1251 0.1251 0.1769 ( 10588 PWs)   bands (ev):

    -4.7114  -3.4362   0.5547   1.9360   2.3674   2.4807   3.3434   4.3022

     occupation numbers 
     1.0000   1.0000   1.0000   1.0000   1.0000   1.0000   1.0000   1.0000

          k = 0.1251 0.1251-0.3539 ( 10602 PWs)   bands (ev):

    -4.4477  -3.8622   1.2872   1.4346   2.4501   2.5594   3.4689   3.5297

     occupation numbers 
     1.0000   1.0000   1.0000   1.0000   1.0000   1.0000   1.0000   1.0000

          k = 0.1251 0.2502 0.0000 ( 10606 PWs)   bands (ev):

    -4.6182  -3.0931   0.4860   0.9787   2.1984   2.3099   3.3261   3.7367

     occupation numbers 
     1.0000   1.0000   1.0000   1.0000   1.0000   1.0000   1.0000   1.0000

          k = 0.1251 0.2502 0.1769 ( 10595 PWs)   bands (ev):

    -4.4835  -3.3348   0.3646   1.5153   1.6278   2.6124   3.2330   3.9419

     occupation numbers 
     1.0000   1.0000   1.0000   1.0000   1.0000   1.0000   1.0000   1.0000

          k = 0.1251 0.2502-0.3539 ( 10614 PWs)   bands (ev):

    -4.2678  -3.6519   0.6983   0.7584   2.3589   2.4147   3.6355   3.6883

     occupation numbers 
     1.0000   1.0000   1.0000   1.0000   1.0000   1.0000   1.0000   1.0000

          k = 0.1251 0.3753 0.0000 ( 10599 PWs)   bands (ev):

    -4.2673  -3.2157   0.5610   1.0012   1.3704   2.5054   2.5909   3.5010

     occupation numbers 
     1.0000   1.0000   1.0000   1.0000   1.0000   1.0000   1.0000   1.0000

          k = 0.1251 0.3753 0.1769 ( 10628 PWs)   bands (ev):

    -4.1748  -3.2845   0.0205   0.6696   1.8813   2.9295   3.1750   3.3976

     occupation numbers 
     1.0000   1.0000   1.0000   1.0000   1.0000   1.0000   1.0000   1.0000

          k = 0.1251 0.3753-0.3539 ( 10604 PWs)   bands (ev):

    -4.0535  -3.3885   0.0193   0.0313   2.6632   2.7062   3.6380   3.6733

     occupation numbers 
     1.0000   1.0000   1.0000   1.0000   1.0000   1.0000   1.0000   1.0000

          k = 0.1251-0.5004 0.0000 ( 10580 PWs)   bands (ev):

    -4.0296  -3.3708   0.6437   0.8155   1.6891   1.6934   3.0159   3.1259

     occupation numbers 
     1.0000   1.0000   1.0000   1.0000   1.0000   1.0000   1.0000   1.0000

          k = 0.1251-0.5004 0.1769 ( 10616 PWs)   bands (ev):

    -3.9911  -3.3149   0.0582   0.1420   2.4607   2.4922   3.2028   3.3040

     occupation numbers 
     1.0000   1.0000   1.0000   1.0000   1.0000   1.0000   1.0000   1.0000

          k = 0.1251-0.5004-0.3539 ( 10620 PWs)   bands (ev):

    -3.9502  -3.2536  -0.2898  -0.2431   2.9112   2.9816   3.5058   3.5113

     occupation numbers 
     1.0000   1.0000   1.0000   1.0000   1.0000   1.0000   1.0000   1.0000

          k = 0.2502 0.2502 0.0000 ( 10589 PWs)   bands (ev):

    -4.3840  -3.0426   0.7924   0.7947   1.7385   1.8693   3.1558   3.1575

     occupation numbers 
     1.0000   1.0000   1.0000   1.0000   1.0000   1.0000   1.0000   1.0000

          k = 0.2502 0.2502 0.1769 ( 10599 PWs)   bands (ev):

    -4.2669  -3.2163   0.5673   0.9987   1.3626   2.5066   2.5970   3.4974

     occupation numbers 
     1.0000   1.0000   1.0000   1.0000   1.0000   1.0000   1.0000   1.0000

          k = 0.2502 0.2502-0.3539 ( 10608 PWs)   bands (ev):

    -4.0937  -3.4479   0.7120   0.7819   1.5598   1.6440   3.5867   3.6272

     occupation numbers 
     1.0000   1.0000   1.0000   1.0000   1.0000   1.0000   1.0000   1.0000

          k = 0.2502 0.3753 0.0000 ( 10614 PWs)   bands (ev):

    -4.0592  -3.0766   0.4479   1.1111   1.2920   2.0082   2.6378   2.8726

     occupation numbers 
     1.0000   1.0000   1.0000   1.0000   1.0000   1.0000   1.0000   1.0000

          k = 0.2502 0.3753 0.1769 ( 10627 PWs)   bands (ev):

    -3.9826  -3.1250   0.2814   0.7466   1.2111   2.3071   2.8199   3.0024

     occupation numbers 
     1.0000   1.0000   1.0000   1.0000   1.0000   1.0000   1.0000   1.0000

          k = 0.2502 0.3753-0.3539 ( 10610 PWs)   bands (ev):

    -3.8882  -3.1947   0.2815   0.2918   1.6385   1.6801   3.2233   3.2479

     occupation numbers 
     1.0000   1.0000   1.0000   1.0000   1.0000   1.0000   1.0000   1.0000

          k = 0.2502-0.5004 0.0000 ( 10608 PWs)   bands (ev):

    -3.8556  -3.1645   0.4918   0.6225   1.9305   1.9483   2.4322   2.4956

     occupation numbers 
     1.0000   1.0000   1.0000   1.0000   1.0000   1.0000   1.0000   1.0000

          k = 0.2502-0.5004 0.1769 ( 10628 PWs)   bands (ev):

    -3.8235  -3.1174   0.2307   0.3154   1.7834   1.8077   2.9223   2.9608

     occupation numbers 
     1.0000   1.0000   1.0000   1.0000   1.0000   1.0000   1.0000   1.0000

          k = 0.2502-0.5004-0.3539 ( 10636 PWs)   bands (ev):

    -3.7900  -3.0666  -0.0026   0.0451   1.8622   1.8964   2.9329   2.9461

     occupation numbers 
     1.0000   1.0000   1.0000   1.0000   1.0000   1.0000   1.0000   1.0000

          k = 0.3753 0.3753 0.0000 ( 10603 PWs)   bands (ev):

    -3.7924  -2.9452   0.1676   0.5794   1.7440   2.0427   2.6338   2.6343

     occupation numbers 
     1.0000   1.0000   1.0000   1.0000   1.0000   1.0000   1.0000   1.0000

          k = 0.3753 0.3753 0.1769 ( 10612 PWs)   bands (ev):

    -3.7461  -2.9494   0.3796   0.5574   0.9597   1.9398   2.4630   2.7784

     occupation numbers 
     1.0000   1.0000   1.0000   1.0000   1.0000   1.0000   1.0000   1.0000

          k = 0.3753 0.3753-0.3539 ( 10596 PWs)   bands (ev):

    -3.6953  -2.9580   0.5632   0.5731   0.9682   1.0322   2.5819   2.6061

     occupation numbers 
     1.0000   1.0000   1.0000   1.0000   1.0000   1.0000   1.0000   1.0000

          k = 0.3753-0.5004 0.0000 ( 10656 PWs)   bands (ev):

    -3.6495  -2.9062   0.1448   0.1898   2.2496   2.2891   2.3687   2.3807

     occupation numbers 
     1.0000   1.0000   1.0000   1.0000   1.0000   1.0000   1.0000   1.0000

          k = 0.3753-0.5004 0.1769 ( 10626 PWs)   bands (ev):

    -3.6272  -2.8741   0.2662   0.3103   1.4777   1.4993   2.4980   2.5076

     occupation numbers 
     1.0000   1.0000   1.0000   1.0000   1.0000   1.0000   1.0000   1.0000

          k = 0.3753-0.5004-0.3539 ( 10576 PWs)   bands (ev):

    -3.6043  -2.8405   0.4342   0.4847   1.0697   1.1127   2.1954   2.2190

     occupation numbers 
     1.0000   1.0000   1.0000   1.0000   1.0000   1.0000   1.0000   1.0000

          k =-0.5004-0.5004 0.0000 ( 10692 PWs)   bands (ev):

    -3.5507  -2.7740  -0.0462  -0.0462   2.4255   2.4534   2.4534   2.4805

     occupation numbers 
     1.0000   1.0000   1.0000   1.0000   1.0000   1.0000   1.0000   1.0000

          k =-0.5004-0.5004 0.1769 ( 10612 PWs)   bands (ev):

    -3.5342  -2.7522   0.1676   0.1676   1.7443   1.7443   2.0397   2.0411

     occupation numbers 
     1.0000   1.0000   1.0000   1.0000   1.0000   1.0000   1.0000   1.0000

          k =-0.5004-0.5004-0.3539 ( 10536 PWs)   bands (ev):

    -3.5173  -2.7297   0.7653   0.7653   0.8220   0.8220   1.7433   1.7646

     occupation numbers 
     1.0000   1.0000   1.0000   1.0000   1.0000   1.0000   1.0000   1.0000

     highest occupied level (ev):     4.4261

!    total energy              =     -27.33302668 Ry
     Harris-Foulkes estimate   =     -27.33302669 Ry
     estimated scf accuracy    <          5.6E-09 Ry

     The total energy is the sum of the following terms:

     one-electron contribution =       7.32753710 Ry
     hartree contribution      =       2.18755269 Ry
     xc contribution           =     -12.90915529 Ry
     ewald contribution        =     -23.93896118 Ry

     convergence has been achieved in   9 iterations

     Forces acting on atoms (cartesian axes, Ry/au):

     atom    1 type  3   force =     0.00000000    0.00000000    0.00000000
     atom    2 type  2   force =     0.00000000    0.00000000    0.00000000
     atom    3 type  1   force =     0.00000000    0.00000000   -0.00000513
     atom    4 type  1   force =     0.00000000    0.00000000   -0.00000513
     atom    5 type  1   force =     0.00000000    0.00000000    0.00000513
     atom    6 type  1   force =     0.00000000    0.00000000    0.00000513
     The non-local contrib.  to forces
     atom    1 type  3   force =     0.00000000    0.00000000    0.00000000
     atom    2 type  2   force =     0.00000000    0.00000000    0.00000000
     atom    3 type  1   force =     0.00000000    0.00000000   -0.00252103
     atom    4 type  1   force =     0.00000000    0.00000000   -0.00252103
     atom    5 type  1   force =     0.00000000    0.00000000    0.00252103
     atom    6 type  1   force =     0.00000000    0.00000000    0.00252103
     The ionic contribution  to forces
     atom    1 type  3   force =     0.00000000    0.00000000    0.00000000
     atom    2 type  2   force =    -0.00000000   -0.00000000   -0.00000000
     atom    3 type  1   force =     0.00000000   -0.00000000   -0.01309214
     atom    4 type  1   force =    -0.00000000    0.00000000   -0.01309214
     atom    5 type  1   force =    -0.00000000    0.00000000    0.01309214
     atom    6 type  1   force =     0.00000000   -0.00000000    0.01309214
     The local contribution  to forces
     atom    1 type  3   force =    -0.00000000   -0.00000000   -0.00000000
     atom    2 type  2   force =    -0.00000000    0.00000000    0.00000000
     atom    3 type  1   force =    -0.00000000    0.00000000    0.01528367
     atom    4 type  1   force =     0.00000000   -0.00000000    0.01528367
     atom    5 type  1   force =     0.00000000   -0.00000000   -0.01528367
     atom    6 type  1   force =    -0.00000000   -0.00000000   -0.01528367
     The core correction contribution to forces
     atom    1 type  3   force =     0.00000000    0.00000000    0.00000000
     atom    2 type  2   force =     0.00000000    0.00000000    0.00000000
     atom    3 type  1   force =    -0.00000000   -0.00000000    0.00032236
     atom    4 type  1   force =     0.00000000   -0.00000000    0.00032236
     atom    5 type  1   force =     0.00000000   -0.00000000   -0.00032236
     atom    6 type  1   force =    -0.00000000   -0.00000000   -0.00032236
     The Hubbard contrib.    to forces
     atom    1 type  3   force =     0.00000000    0.00000000    0.00000000
     atom    2 type  2   force =     0.00000000    0.00000000    0.00000000
     atom    3 type  1   force =     0.00000000    0.00000000    0.00000000
     atom    4 type  1   force =     0.00000000    0.00000000    0.00000000
     atom    5 type  1   force =     0.00000000    0.00000000    0.00000000
     atom    6 type  1   force =     0.00000000    0.00000000    0.00000000
     The SCF correction term to forces
     atom    1 type  3   force =    -0.00000000   -0.00000000   -0.00000000
     atom    2 type  2   force =     0.00000000   -0.00000000    0.00000000
     atom    3 type  1   force =    -0.00000000   -0.00000000    0.00000201
     atom    4 type  1   force =     0.00000000    0.00000000    0.00000201
     atom    5 type  1   force =     0.00000000    0.00000000   -0.00000201
     atom    6 type  1   force =    -0.00000000   -0.00000000   -0.00000201

     Total force =     0.000010     Total SCF correction =     0.000004
     SCF correction compared to forces is large: reduce conv_thr to get better values


     Computing stress (Cartesian axis) and pressure

          total   stress  (Ry/bohr**3)                   (kbar)     P=   -0.03
  -0.00000025   0.00000000   0.00000000         -0.04      0.00      0.00
   0.00000000  -0.00000025   0.00000000          0.00     -0.04      0.00
   0.00000000   0.00000000  -0.00000016          0.00      0.00     -0.02

     kinetic stress (kbar)    988.45      0.00      0.00
                                0.00    988.45      0.00
                                0.00      0.00    988.06

     local   stress (kbar)    -76.34     -0.00     -0.00
                               -0.00    -76.34     -0.00
                               -0.00     -0.00    -75.06

     nonloc. stress (kbar)    779.44      0.00      0.00
                                0.00    779.44      0.00
                                0.00      0.00    779.10

     hartree stress (kbar)    122.21      0.00     -0.00
                                0.00    122.21     -0.00
                               -0.00     -0.00    122.03

     exc-cor stress (kbar)    295.94     -0.00      0.00
                               -0.00    295.94      0.00
                                0.00      0.00    295.93

     corecor stress (kbar)   -773.13     -0.00     -0.00
                               -0.00   -773.13     -0.00
                               -0.00      0.00   -773.10

     ewald   stress (kbar)  -1336.61     -0.00      0.00
                               -0.00  -1336.61      0.00
                                0.00      0.00  -1336.99

     hubbard stress (kbar)      0.00      0.00      0.00
                                0.00      0.00      0.00
                                0.00      0.00      0.00

     london  stress (kbar)      0.00      0.00      0.00
                                0.00      0.00      0.00
                                0.00      0.00      0.00

     DFT-D3  stress (kbar)      0.00      0.00      0.00
                                0.00      0.00      0.00
                                0.00      0.00      0.00

     XDM     stress (kbar)      0.00      0.00      0.00
                                0.00      0.00      0.00
                                0.00      0.00      0.00

     dft-nl  stress (kbar)      0.00      0.00      0.00
                                0.00      0.00      0.00
                                0.00      0.00      0.00

     TS-vdW  stress (kbar)      0.00      0.00      0.00
                                0.00      0.00      0.00
                                0.00      0.00      0.00



     Writing output data file pwscf.save/
 
     init_run     :     33.14s CPU     34.08s WALL (       2 calls)
     electrons    :    449.22s CPU    451.73s WALL (       9 calls)
     update_pot   :     14.39s CPU     14.43s WALL (       7 calls)
     forces       :     14.15s CPU     14.20s WALL (       9 calls)
     stress       :     43.13s CPU     43.69s WALL (       9 calls)

     Called by init_run:
     wfcinit      :     31.39s CPU     32.11s WALL (       2 calls)
     wfcinit:atom :      0.57s CPU      0.77s WALL (      90 calls)
     wfcinit:wfcr :     28.02s CPU     28.46s WALL (      90 calls)
     potinit      :      0.73s CPU      0.76s WALL (       2 calls)
     hinit0       :      0.96s CPU      1.14s WALL (       2 calls)

     Called by electrons:
     c_bands      :    408.00s CPU    410.20s WALL (      54 calls)
     sum_band     :     38.32s CPU     38.46s WALL (      54 calls)
     v_of_rho     :      2.79s CPU      2.83s WALL (      56 calls)
     v_h          :      0.14s CPU      0.14s WALL (      56 calls)
     v_xc         :      3.52s CPU      3.55s WALL (      74 calls)
     mix_rho      :      0.44s CPU      0.48s WALL (      54 calls)

     Called by c_bands:
     init_us_2    :     22.36s CPU     22.46s WALL (    5760 calls)
     ccgdiagg     :    352.64s CPU    354.60s WALL (    2430 calls)
     wfcrot       :     72.45s CPU     73.07s WALL (    1800 calls)

     Called by sum_band:

     Called by *cgdiagg:
     h_psi        :    352.91s CPU    354.76s WALL (   64762 calls)
     cdiaghg      :      0.17s CPU      0.35s WALL (    1800 calls)

     Called by h_psi:
     h_psi:pot    :    351.23s CPU    352.91s WALL (   64762 calls)
     h_psi:calbec :     58.27s CPU     58.63s WALL (   64762 calls)
     vloc_psi     :    238.19s CPU    239.20s WALL (   64762 calls)
     add_vuspsi   :     54.50s CPU     54.87s WALL (   64762 calls)
     h_1psi       :    286.60s CPU    288.04s WALL (   62962 calls)

     General routines
     calbec       :    112.17s CPU    113.02s WALL (  129749 calls)
     fft          :      0.98s CPU      1.15s WALL (     799 calls)
     ffts         :      0.06s CPU      0.06s WALL (      54 calls)
     fftw         :    224.48s CPU    225.38s WALL (  190004 calls)
 
 
     PWSCF        :  9m14.26s CPU     9m18.85s WALL

 
   This run was terminated on:  12:21:47  24Jul2018            

=------------------------------------------------------------------------------=
   JOB DONE.
=------------------------------------------------------------------------------=
